# vtk DataFile Version 3.1
cfd-iitm output (Simulation clock:-1.000000)
ASCII
DATASET STRUCTURED_GRID
DIMENSIONS 181 65 1
POINTS 11765 FLOAT
.0000000000000000 .0000000000000000 .000000
.0055555555555600 .0000000000000000 .000000
.0111111111111000 .0000000000000000 .000000
.0166666666667000 .0000000000000000 .000000
.0222222222222000 .0000000000000000 .000000
.0277777777778000 .0000000000000000 .000000
.0333333333333000 .0000000000000000 .000000
.0388888888889000 .0000000000000000 .000000
.0444444444444000 .0000000000000000 .000000
.0500000000000000 .0000000000000000 .000000
.0555555555556000 .0000000000000000 .000000
.0611111111111000 .0000000000000000 .000000
.0666666666667000 .0000000000000000 .000000
.0722222222222000 .0000000000000000 .000000
.0777777777778000 .0000000000000000 .000000
.0833333333333000 .0000000000000000 .000000
.0888888888889000 .0000000000000000 .000000
.0944444444444000 .0000000000000000 .000000
.1000000000000000 .0000000000000000 .000000
.1055555555560000 .0000000000000000 .000000
.1111111111110000 .0000000000000000 .000000
.1166666666670000 .0000000000000000 .000000
.1222222222220000 .0000000000000000 .000000
.1277777777780000 .0000000000000000 .000000
.1333333333330000 .0000000000000000 .000000
.1388888888890000 .0000000000000000 .000000
.1444444444440000 .0000000000000000 .000000
.1500000000000000 .0000000000000000 .000000
.1555555555560000 .0000000000000000 .000000
.1611111111110000 .0000000000000000 .000000
.1666666666670000 .0000000000000000 .000000
.1722222222220000 .0000000000000000 .000000
.1777777777780000 .0000000000000000 .000000
.1833333333330000 .0000000000000000 .000000
.1888888888890000 .0000000000000000 .000000
.1944444444440000 .0000000000000000 .000000
.2000000000000000 .0000000000000000 .000000
.2055555555560000 .0000000000000000 .000000
.2111111111110000 .0000000000000000 .000000
.2166666666670000 .0000000000000000 .000000
.2222222222220000 .0000000000000000 .000000
.2277777777780000 .0000000000000000 .000000
.2333333333330000 .0000000000000000 .000000
.2388888888890000 .0000000000000000 .000000
.2444444444440000 .0000000000000000 .000000
.2500000000000000 .0000000000000000 .000000
.2555555555560000 .0000000000000000 .000000
.2611111111110000 .0000000000000000 .000000
.2666666666670000 .0000000000000000 .000000
.2722222222220000 .0000000000000000 .000000
.2777777777780000 .0000000000000000 .000000
.2833333333330000 .0000000000000000 .000000
.2888888888890000 .0000000000000000 .000000
.2944444444440000 .0000000000000000 .000000
.3000000000000000 .0000000000000000 .000000
.3055555555560000 .0000000000000000 .000000
.3111111111110000 .0000000000000000 .000000
.3166666666670000 .0000000000000000 .000000
.3222222222220000 .0000000000000000 .000000
.3277777777780000 .0000000000000000 .000000
.3333333333330000 .0000000000000000 .000000
.3388888888890000 .0000000000000000 .000000
.3444444444440000 .0000000000000000 .000000
.3500000000000000 .0000000000000000 .000000
.3555555555560000 .0000000000000000 .000000
.3611111111110000 .0000000000000000 .000000
.3666666666670000 .0000000000000000 .000000
.3722222222220000 .0000000000000000 .000000
.3777777777780000 .0000000000000000 .000000
.3833333333330000 .0000000000000000 .000000
.3888888888890000 .0000000000000000 .000000
.3944444444440000 .0000000000000000 .000000
.4000000000000000 .0000000000000000 .000000
.4055555555560000 .0000000000000000 .000000
.4111111111110000 .0000000000000000 .000000
.4166666666670000 .0000000000000000 .000000
.4222222222220000 .0000000000000000 .000000
.4277777777780000 .0000000000000000 .000000
.4333333333330000 .0000000000000000 .000000
.4388888888890000 .0000000000000000 .000000
.4444444444440000 .0000000000000000 .000000
.4500000000000000 .0000000000000000 .000000
.4555555555560000 .0000000000000000 .000000
.4611111111110000 .0000000000000000 .000000
.4666666666670000 .0000000000000000 .000000
.4722222222220000 .0000000000000000 .000000
.4777777777780000 .0000000000000000 .000000
.4833333333330000 .0000000000000000 .000000
.4888888888890000 .0000000000000000 .000000
.4944444444440000 .0000000000000000 .000000
.5000000000000000 .0000000000000000 .000000
.5055555555560000 .0000000000000000 .000000
.5111111111110000 .0000000000000000 .000000
.5166666666670000 .0000000000000000 .000000
.5222222222220000 .0000000000000000 .000000
.5277777777779999 .0000000000000000 .000000
.5333333333330000 .0000000000000000 .000000
.5388888888890000 .0000000000000000 .000000
.5444444444440000 .0000000000000000 .000000
.5500000000000000 .0000000000000000 .000000
.5555555555560000 .0000000000000000 .000000
.5611111111110000 .0000000000000000 .000000
.5666666666670001 .0000000000000000 .000000
.5722222222220000 .0000000000000000 .000000
.5777777777780000 .0000000000000000 .000000
.5833333333330000 .0000000000000000 .000000
.5888888888890000 .0000000000000000 .000000
.5944444444440000 .0000000000000000 .000000
.6000000000000000 .0000000000000000 .000000
.6055555555560000 .0000000000000000 .000000
.6111111111110000 .0000000000000000 .000000
.6166666666670000 .0000000000000000 .000000
.6222222222220000 .0000000000000000 .000000
.6277777777780000 .0000000000000000 .000000
.6333333333330000 .0000000000000000 .000000
.6388888888890000 .0000000000000000 .000000
.6444444444440000 .0000000000000000 .000000
.6500000000000000 .0000000000000000 .000000
.6555555555560000 .0000000000000000 .000000
.6611111111110000 .0000000000000000 .000000
.6666666666670000 .0000000000000000 .000000
.6722222222220000 .0000000000000000 .000000
.6777777777780000 .0000000000000000 .000000
.6833333333329999 .0000000000000000 .000000
.6888888888890000 .0000000000000000 .000000
.6944444444440000 .0000000000000000 .000000
.7000000000000000 .0000000000000000 .000000
.7055555555560000 .0000000000000000 .000000
.7111111111110000 .0000000000000000 .000000
.7166666666670000 .0000000000000000 .000000
.7222222222220001 .0000000000000000 .000000
.7277777777780000 .0000000000000000 .000000
.7333333333330000 .0000000000000000 .000000
.7388888888890000 .0000000000000000 .000000
.7444444444440000 .0000000000000000 .000000
.7500000000000000 .0000000000000000 .000000
.7555555555560000 .0000000000000000 .000000
.7611111111110000 .0000000000000000 .000000
.7666666666670000 .0000000000000000 .000000
.7722222222220000 .0000000000000000 .000000
.7777777777779999 .0000000000000000 .000000
.7833333333330000 .0000000000000000 .000000
.7888888888890000 .0000000000000000 .000000
.7944444444440000 .0000000000000000 .000000
.8000000000000000 .0000000000000000 .000000
.8055555555560000 .0000000000000000 .000000
.8111111111110000 .0000000000000000 .000000
.8166666666670001 .0000000000000000 .000000
.8222222222220000 .0000000000000000 .000000
.8277777777780000 .0000000000000000 .000000
.8333333333330000 .0000000000000000 .000000
.8388888888890000 .0000000000000000 .000000
.8444444444440000 .0000000000000000 .000000
.8500000000000000 .0000000000000000 .000000
.8555555555560000 .0000000000000000 .000000
.8611111111110000 .0000000000000000 .000000
.8666666666670000 .0000000000000000 .000000
.8722222222220000 .0000000000000000 .000000
.8777777777780000 .0000000000000000 .000000
.8833333333330000 .0000000000000000 .000000
.8888888888890000 .0000000000000000 .000000
.8944444444440000 .0000000000000000 .000000
.9000000000000000 .0000000000000000 .000000
.9055555555560000 .0000000000000000 .000000
.9111111111110000 .0000000000000000 .000000
.9166666666670000 .0000000000000000 .000000
.9222222222220000 .0000000000000000 .000000
.9277777777780000 .0000000000000000 .000000
.9333333333329999 .0000000000000000 .000000
.9388888888890000 .0000000000000000 .000000
.9444444444440000 .0000000000000000 .000000
.9500000000000000 .0000000000000000 .000000
.9555555555560000 .0000000000000000 .000000
.9611111111110000 .0000000000000000 .000000
.9666666666670000 .0000000000000000 .000000
.9722222222220001 .0000000000000000 .000000
.9777777777780000 .0000000000000000 .000000
.9833333333330000 .0000000000000000 .000000
.9888888888890000 .0000000000000000 .000000
.9944444444440000 .0000000000000000 .000000
1.0000000000000000 .0000000000000000 .000000
.0000000000000000 .0031250000000000 .000000
.0055555555555600 .0031250000000000 .000000
.0111111111111000 .0031250000000000 .000000
.0166666666667000 .0031250000000000 .000000
.0222222222222000 .0031250000000000 .000000
.0277777777778000 .0031250000000000 .000000
.0333333333333000 .0031250000000000 .000000
.0388888888889000 .0031250000000000 .000000
.0444444444444000 .0031250000000000 .000000
.0500000000000000 .0031250000000000 .000000
.0555555555556000 .0031250000000000 .000000
.0611111111111000 .0031250000000000 .000000
.0666666666667000 .0031250000000000 .000000
.0722222222222000 .0031250000000000 .000000
.0777777777778000 .0031250000000000 .000000
.0833333333333000 .0031250000000000 .000000
.0888888888889000 .0031250000000000 .000000
.0944444444444000 .0031250000000000 .000000
.1000000000000000 .0031250000000000 .000000
.1055555555560000 .0031250000000000 .000000
.1111111111110000 .0031250000000000 .000000
.1166666666670000 .0031250000000000 .000000
.1222222222220000 .0031250000000000 .000000
.1277777777780000 .0031250000000000 .000000
.1333333333330000 .0031250000000000 .000000
.1388888888890000 .0031250000000000 .000000
.1444444444440000 .0031250000000000 .000000
.1500000000000000 .0031250000000000 .000000
.1555555555560000 .0031250000000000 .000000
.1611111111110000 .0031250000000000 .000000
.1666666666670000 .0031250000000000 .000000
.1722222222220000 .0031250000000000 .000000
.1777777777780000 .0031250000000000 .000000
.1833333333330000 .0031250000000000 .000000
.1888888888890000 .0031250000000000 .000000
.1944444444440000 .0031250000000000 .000000
.2000000000000000 .0031250000000000 .000000
.2055555555560000 .0031250000000000 .000000
.2111111111110000 .0031250000000000 .000000
.2166666666670000 .0031250000000000 .000000
.2222222222220000 .0031250000000000 .000000
.2277777777780000 .0031250000000000 .000000
.2333333333330000 .0031250000000000 .000000
[...]
CELL_DATA 11520
VECTORS Velocity FLOAT
51.2273035065381279 .0743659702596856 .0000000000000000
51.1053082693502176 .1381240687063908 .0000000000000000
50.8717332950404213 .1398312913695472 .0000000000000000
50.6679473099588620 .1176279780840607 .0000000000000000
50.5946024225031152 .0589307728022899 .0000000000000000
50.8108537367866688 .0301486888114940 .0000000000000000
51.0250008688807952 .0353165752629809 .0000000000000000
51.2787971701728083 .0619087667411014 .0000000000000000
51.4536344023400503 .1037308658489603 .0000000000000000
51.5898180384378833 .1232400911371713 .0000000000000000
51.7571157988005766 .1186571968843836 .0000000000000000
51.9959176991203122 .1002327589785782 .0000000000000000
52.3719787740708469 .0724192982256648 .0000000000000000
52.8595736716341023 .0622366000412732 .0000000000000000
53.3962370981674681 .0650139445930082 .0000000000000000
53.9528753701178303 .0771331311614666 .0000000000000000
54.4854185006581275 .0972394132670631 .0000000000000000
54.9802706401950090 .1131358694813637 .0000000000000000
55.4726956336691543 .1135744284502558 .0000000000000000
55.9883019213869275 .1099650256121918 .0000000000000000
56.5375847098674242 .1013214882668091 .0000000000000000
57.1288384399157962 .0908385425894842 .0000000000000000
57.7592948268910646 .0833290902121691 .0000000000000000
58.4044873128720354 .0841737181285761 .0000000000000000
59.0426984953957259 .0882507060947460 .0000000000000000
59.6587747024482482 .0973084744742942 .0000000000000000
60.2343621053292466 .1103223737799221 .0000000000000000
60.7591749454107060 .1249174265899611 .0000000000000000
61.2337589376617046 .1366886638178312 .0000000000000000
61.6737811058046859 .1429220143974981 .0000000000000000
62.0925081012216182 .1474494036006781 .0000000000000000
62.4895871299783252 .1538774029790927 .0000000000000000
62.8554075539408217 .1647175502437993 .0000000000000000
63.1711278287495546 .1833222468437596 .0000000000000000
63.4082144083030244 .2066972075239458 .0000000000000000
63.5539194119872732 .2444502700849990 .0000000000000000
63.5863270137392078 .2600759391023434 .0000000000000000
63.4653344506942005 .3223708535122835 .0000000000000000
63.2065167378189159 .3489113862824385 .0000000000000000
62.7408421814713435 .4300766178694091 .0000000000000000
61.7544297040324679 .6372023509329794 .0000000000000000
59.6071703763636336 1.0904456489209333 .0000000000000000
55.0390501225769668 2.1190487985957902 .0000000000000000
46.1216018275993491 3.5729683218189447 .0000000000000000
31.4165206516552438 5.1143579330907736 .0000000000000000
12.5535809646735608 6.7253897954272004 .0000000000000000
-8.9974265356801055 -2.7042105095511930 .0000000000000000
-5.1372851691214896 -5.5213219763602215 .0000000000000000
.0000000000000000 .0000000000000000 .0000000000000000
.0000000000000000 .0000000000000000 .0000000000000000
.0000000000000000 .0000000000000000 .0000000000000000
.0000000000000000 .0000000000000000 .0000000000000000
.0000000000000000 .0000000000000000 .0000000000000000
.0000000000000000 .0000000000000000 .0000000000000000
.0000000000000000 .0000000000000000 .0000000000000000
.0000000000000000 .0000000000000000 .0000000000000000
.0000000000000000 .0000000000000000 .0000000000000000
.0000000000000000 .0000000000000000 .0000000000000000
.0000000000000000 .0000000000000000 .0000000000000000
.0000000000000000 .0000000000000000 .0000000000000000
.0000000000000000 .0000000000000000 .0000000000000000
.0000000000000000 .0000000000000000 .0000000000000000
.0000000000000000 .0000000000000000 .0000000000000000
.0000000000000000 .0000000000000000 .0000000000000000
.0000000000000000 .0000000000000000 .0000000000000000
.0000000000000000 .0000000000000000 .0000000000000000
.0000000000000000 .0000000000000000 .0000000000000000
.0000000000000000 .0000000000000000 .0000000000000000
.0000000000000000 .0000000000000000 .0000000000000000
.0000000000000000 .0000000000000000 .0000000000000000
.0000000000000000 .0000000000000000 .0000000000000000
.0000000000000000 .0000000000000000 .0000000000000000
.0000000000000000 .0000000000000000 .0000000000000000
.0000000000000000 .0000000000000000 .0000000000000000
.0000000000000000 .0000000000000000 .0000000000000000
.0000000000000000 .0000000000000000 .0000000000000000
.0000000000000000 .0000000000000000 .0000000000000000
.0000000000000000 .0000000000000000 .0000000000000000
.0000000000000000 .0000000000000000 .0000000000000000
.0000000000000000 .0000000000000000 .0000000000000000
.0000000000000000 .0000000000000000 .0000000000000000
.0000000000000000 .0000000000000000 .0000000000000000
.0000000000000000 .0000000000000000 .0000000000000000
.0000000000000000 .0000000000000000 .0000000000000000
.0000000000000000 .0000000000000000 .0000000000000000
.0000000000000000 .0000000000000000 .0000000000000000
.0000000000000000 .0000000000000000 .0000000000000000
.0000000000000000 .0000000000000000 .0000000000000000
.0000000000000000 .0000000000000000 .0000000000000000
.0000000000000000 .0000000000000000 .0000000000000000
.0000000000000000 .0000000000000000 .0000000000000000
.0000000000000000 .0000000000000000 .0000000000000000
.0000000000000000 .0000000000000000 .0000000000000000
.0000000000000000 .0000000000000000 .0000000000000000
.0000000000000000 .0000000000000000 .0000000000000000
.0000000000000000 .0000000000000000 .0000000000000000
.0000000000000000 .0000000000000000 .0000000000000000
.0000000000000000 .0000000000000000 .0000000000000000
.0000000000000000 .0000000000000000 .0000000000000000
.0000000000000000 .0000000000000000 .0000000000000000
.0000000000000000 .0000000000000000 .0000000000000000
.0000000000000000 .0000000000000000 .0000000000000000
.0000000000000000 .0000000000000000 .0000000000000000
.0000000000000000 .0000000000000000 .0000000000000000
.0000000000000000 .0000000000000000 .0000000000000000
.0000000000000000 .0000000000000000 .0000000000000000
.0000000000000000 .0000000000000000 .0000000000000000
.0000000000000000 .0000000000000000 .0000000000000000
.0000000000000000 .0000000000000000 .0000000000000000
.0000000000000000 .0000000000000000 .0000000000000000
.0000000000000000 .0000000000000000 .0000000000000000
.0000000000000000 .0000000000000000 .0000000000000000
.0000000000000000 .0000000000000000 .0000000000000000
.0000000000000000 .0000000000000000 .0000000000000000
.0000000000000000 .0000000000000000 .0000000000000000
.0000000000000000 .0000000000000000 .0000000000000000
.0000000000000000 .0000000000000000 .0000000000000000
.0000000000000000 .0000000000000000 .0000000000000000
.0000000000000000 .0000000000000000 .0000000000000000
.0000000000000000 .0000000000000000 .0000000000000000
.0000000000000000 .0000000000000000 .0000000000000000
.0000000000000000 .0000000000000000 .0000000000000000
.0000000000000000 .0000000000000000 .0000000000000000
.0000000000000000 .0000000000000000 .0000000000000000
.0000000000000000 .0000000000000000 .0000000000000000
.0000000000000000 .0000000000000000 .0000000000000000
.0000000000000000 .0000000000000000 .0000000000000000
.0000000000000000 .0000000000000000 .0000000000000000
.0000000000000000 .0000000000000000 .0000000000000000
.0000000000000000 .0000000000000000 .0000000000000000
.0000000000000000 .0000000000000000 .0000000000000000
.0000000000000000 .0000000000000000 .0000000000000000
.0000000000000000 .0000000000000000 .0000000000000000
.0000000000000000 .0000000000000000 .0000000000000000
.0000000000000000 .0000000000000000 .0000000000000000
.0000000000000000 .0000000000000000 .0000000000000000
.0000000000000000 .0000000000000000 .0000000000000000
.0000000000000000 .0000000000000000 .0000000000000000
.0000000000000000 .0000000000000000 .0000000000000000
.0000000000000000 .0000000000000000 .0000000000000000
.0000000000000000 .0000000000000000 .0000000000000000
.0000000000000000 .0000000000000000 .0000000000000000
.0000000000000000 .0000000000000000 .0000000000000000
.0000000000000000 .0000000000000000 .0000000000000000
.0000000000000000 .0000000000000000 .0000000000000000
.0000000000000000 .0000000000000000 .0000000000000000
.0000000000000000 .0000000000000000 .0000000000000000
.0000000000000000 .0000000000000000 .0000000000000000
.0000000000000000 .0000000000000000 .0000000000000000
.0000000000000000 .0000000000000000 .0000000000000000
.0000000000000000 .0000000000000000 .0000000000000000
.0000000000000000 .0000000000000000 .0000000000000000
.0000000000000000 .0000000000000000 .0000000000000000
.0000000000000000 .0000000000000000 .0000000000000000
.0000000000000000 .0000000000000000 .0000000000000000
.0000000000000000 .0000000000000000 .0000000000000000
.0000000000000000 .0000000000000000 .0000000000000000
.0000000000000000 .0000000000000000 .0000000000000000
.0000000000000000 .0000000000000000 .0000000000000000
.0000000000000000 .0000000000000000 .0000000000000000
.0000000000000000 .0000000000000000 .0000000000000000
.0000000000000000 .0000000000000000 .0000000000000000
.0000000000000000 .0000000000000000 .0000000000000000
.0000000000000000 .0000000000000000 .0000000000000000
.0000000000000000 .0000000000000000 .0000000000000000
.0000000000000000 .0000000000000000 .0000000000000000
.0000000000000000 .0000000000000000 .0000000000000000
.0000000000000000 .0000000000000000 .0000000000000000
.0000000000000000 .0000000000000000 .0000000000000000
.0000000000000000 .0000000000000000 .0000000000000000
.0000000000000000 .0000000000000000 .0000000000000000
.0000000000000000 .0000000000000000 .0000000000000000
.0000000000000000 .0000000000000000 .0000000000000000
.0000000000000000 .0000000000000000 .0000000000000000
.0000000000000000 .0000000000000000 .0000000000000000
.0000000000000000 .0000000000000000 .0000000000000000
.0000000000000000 .0000000000000000 .0000000000000000
.0000000000000000 .0000000000000000 .0000000000000000
.0000000000000000 .0000000000000000 .0000000000000000
.0000000000000000 .0000000000000000 .0000000000000000
51.2466160729707880 .2112671682768179 .0000000000000000
51.1422360143225774 .3998789787562493 .0000000000000000
50.9280019490070615 .4071654090251369 .0000000000000000
50.7402433841369671 .3364940904427303 .0000000000000000
50.6842902884498301 .1714780783038101 .0000000000000000
50.9137073785426608 .0779559378185066 .0000000000000000
51.1446979384128184 .0932608545886399 .0000000000000000
51.4165774163419727 .1733719690023092 .0000000000000000
51.6081065860063291 .2994453788171232 .0000000000000000
51.7598888066649465 .3583241733490753 .0000000000000000
51.9432468028787184 .3445457091977595 .0000000000000000
52.1994389881184944 .2888644304270653 .0000000000000000
52.5934032438399299 .2054751842726469 .0000000000000000
53.0990889365075844 .1748930152676073 .0000000000000000
53.6538807921165528 .1831708948639810 .0000000000000000
54.2287771648156181 .2194583351032234 .0000000000000000
54.7795946946540226 .2797823744079511 .0000000000000000
55.2924574002278746 .3275308459852508 .0000000000000000
55.8024508668532491 .3288729228469934 .0000000000000000
56.3353085297742524 .3178869387990664 .0000000000000000
56.9017518087855194 .2915927339654033 .0000000000000000
57.5106005584255371 .2594528969940988 .0000000000000000
58.1597275941923826 .2359244949669200 .0000000000000000
58.8252045346737660 .2372857392561033 .0000000000000000
59.4857323765638597 .2480042360722717 .0000000000000000
60.1266404628212925 .2734303653963753 .0000000000000000
60.7297092632437838 .3103530114849677 .0000000000000000
61.2848306885693361 .3515344384920122 .0000000000000000
61.7924899704309780 .3835048015445249 .0000000000000000
62.2688245818443633 .3979450213203183 .0000000000000000
62.7283876430006728 .4061339022876701 .0000000000000000
63.1719628484223179 .4181760005205507 .0000000000000000
63.5928799383110359 .4428938841847846 .0000000000000000
63.9725033579321192 .4861298517014537 .0000000000000000
64.2904029001685302 .5522866230294785 .0000000000000000
64.5087949022291269 .6322017560354632 .0000000000000000
64.6333012214960405 .7274444210168526 .0000000000000000
64.6190151895618641 .8255953686920851 .0000000000000000
64.4213305319509857 .9249812765435226 .0000000000000000
64.1200810993456543 1.1024438095662727 .0000000000000000
63.5633717166499821 1.5149679030718077 .0000000000000000
62.7305531342745226 2.4916364759574070 .0000000000000000
61.1447587186999542 4.4981933395599993 .0000000000000000
58.9696797379631263 8.0271129471637401 .0000000000000000
55.2425557146722142 12.1410810301232122 .0000000000000000
46.8359227909698461 16.2274539303697303 .0000000000000000
31.9784635548159599 9.6750318469485741 .0000000000000000
12.1265171396802565 7.3860490661030695 .0000000000000000
-6.8280036078660338 -2.0455663000985087 .0000000000000000
-7.4112753288612891 -5.8545688496518800 .0000000000000000
.0000000000000000 .0000000000000000 .0000000000000000
.0000000000000000 .0000000000000000 .0000000000000000
.0000000000000000 .0000000000000000 .0000000000000000
.0000000000000000 .0000000000000000 .0000000000000000
.0000000000000000 .0000000000000000 .0000000000000000
.0000000000000000 .0000000000000000 .0000000000000000
.0000000000000000 .0000000000000000 .0000000000000000
.0000000000000000 .0000000000000000 .0000000000000000
.0000000000000000 .0000000000000000 .0000000000000000
.0000000000000000 .0000000000000000 .0000000000000000
.0000000000000000 .0000000000000000 .0000000000000000
.0000000000000000 .0000000000000000 .0000000000000000
.0000000000000000 .0000000000000000 .0000000000000000
.0000000000000000 .0000000000000000 .0000000000000000
.0000000000000000 .0000000000000000 .0000000000000000
.0000000000000000 .0000000000000000 .0000000000000000
.0000000000000000 .0000000000000000 .0000000000000000
.0000000000000000 .0000000000000000 .0000000000000000
.0000000000000000 .0000000000000000 .0000000000000000
.0000000000000000 .0000000000000000 .0000000000000000
.0000000000000000 .0000000000000000 .0000000000000000
.0000000000000000 .0000000000000000 .0000000000000000
.0000000000000000 .0000000000000000 .0000000000000000
.0000000000000000 .0000000000000000 .0000000000000000
.0000000000000000 .0000000000000000 .0000000000000000
.0000000000000000 .0000000000000000 .0000000000000000
.0000000000000000 .0000000000000000 .0000000000000000
.0000000000000000 .0000000000000000 .0000000000000000
.0000000000000000 .0000000000000000 .0000000000000000
.0000000000000000 .0000000000000000 .0000000000000000
.0000000000000000 .0000000000000000 .0000000000000000
.0000000000000000 .0000000000000000 .0000000000000000
.0000000000000000 .0000000000000000 .0000000000000000
.0000000000000000 .0000000000000000 .0000000000000000
.0000000000000000 .0000000000000000 .0000000000000000
.0000000000000000 .0000000000000000 .0000000000000000
.0000000000000000 .0000000000000000 .0000000000000000
.0000000000000000 .0000000000000000 .0000000000000000
.0000000000000000 .0000000000000000 .0000000000000000
.0000000000000000 .0000000000000000 .0000000000000000
.0000000000000000 .0000000000000000 .0000000000000000
.0000000000000000 .0000000000000000 .0000000000000000
.0000000000000000 .0000000000000000 .0000000000000000
.0000000000000000 .0000000000000000 .0000000000000000
.0000000000000000 .0000000000000000 .0000000000000000
.0000000000000000 .0000000000000000 .0000000000000000
.0000000000000000 .0000000000000000 .0000000000000000
.0000000000000000 .0000000000000000 .0000000000000000
.0000000000000000 .0000000000000000 .0000000000000000
.0000000000000000 .0000000000000000 .0000000000000000
.0000000000000000 .0000000000000000 .0000000000000000
.0000000000000000 .0000000000000000 .0000000000000000
.0000000000000000 .0000000000000000 .0000000000000000
.0000000000000000 .0000000000000000 .0000000000000000
.0000000000000000 .0000000000000000 .0000000000000000
.0000000000000000 .0000000000000000 .0000000000000000
.0000000000000000 .0000000000000000 .0000000000000000
.0000000000000000 .0000000000000000 .0000000000000000
.0000000000000000 .0000000000000000 .0000000000000000
.0000000000000000 .0000000000000000 .0000000000000000
.0000000000000000 .0000000000000000 .0000000000000000
.0000000000000000 .0000000000000000 .0000000000000000
.0000000000000000 .0000000000000000 .0000000000000000
.0000000000000000 .0000000000000000 .0000000000000000
.0000000000000000 .0000000000000000 .0000000000000000
.0000000000000000 .0000000000000000 .0000000000000000
.0000000000000000 .0000000000000000 .0000000000000000
.0000000000000000 .0000000000000000 .0000000000000000
.0000000000000000 .0000000000000000 .0000000000000000
.0000000000000000 .0000000000000000 .0000000000000000
.0000000000000000 .0000000000000000 .0000000000000000
.0000000000000000 .0000000000000000 .0000000000000000
.0000000000000000 .0000000000000000 .0000000000000000
.0000000000000000 .0000000000000000 .0000000000000000
.0000000000000000 .0000000000000000 .0000000000000000
.0000000000000000 .0000000000000000 .0000000000000000
.0000000000000000 .0000000000000000 .0000000000000000
.0000000000000000 .0000000000000000 .0000000000000000
.0000000000000000 .0000000000000000 .0000000000000000
.0000000000000000 .0000000000000000 .0000000000000000
.0000000000000000 .0000000000000000 .0000000000000000
.0000000000000000 .0000000000000000 .0000000000000000
.0000000000000000 .0000000000000000 .0000000000000000
.0000000000000000 .0000000000000000 .0000000000000000
.0000000000000000 .0000000000000000 .0000000000000000
.0000000000000000 .0000000000000000 .0000000000000000
.0000000000000000 .0000000000000000 .0000000000000000
.0000000000000000 .0000000000000000 .0000000000000000
.0000000000000000 .0000000000000000 .0000000000000000
.0000000000000000 .0000000000000000 .0000000000000000
.0000000000000000 .0000000000000000 .0000000000000000
.0000000000000000 .0000000000000000 .0000000000000000
.0000000000000000 .0000000000000000 .0000000000000000
.0000000000000000 .0000000000000000 .0000000000000000
.0000000000000000 .0000000000000000 .0000000000000000
.0000000000000000 .0000000000000000 .0000000000000000
.0000000000000000 .0000000000000000 .0000000000000000
.0000000000000000 .0000000000000000 .0000000000000000
.0000000000000000 .0000000000000000 .0000000000000000
.0000000000000000 .0000000000000000 .0000000000000000
.0000000000000000 .0000000000000000 .0000000000000000
.0000000000000000 .0000000000000000 .0000000000000000
.0000000000000000 .0000000000000000 .0000000000000000
.0000000000000000 .0000000000000000 .0000000000000000
.0000000000000000 .0000000000000000 .0000000000000000
.0000000000000000 .0000000000000000 .0000000000000000
.0000000000000000 .0000000000000000 .0000000000000000
.0000000000000000 .0000000000000000 .0000000000000000
.0000000000000000 .0000000000000000 .0000000000000000
.0000000000000000 .0000000000000000 .0000000000000000
.0000000000000000 .0000000000000000 .0000000000000000
.0000000000000000 .0000000000000000 .0000000000000000
.0000000000000000 .0000000000000000 .0000000000000000
.0000000000000000 .0000000000000000 .0000000000000000
.0000000000000000 .0000000000000000 .0000000000000000
.0000000000000000 .0000000000000000 .0000000000000000
.0000000000000000 .0000000000000000 .0000000000000000
.0000000000000000 .0000000000000000 .0000000000000000
.0000000000000000 .0000000000000000 .0000000000000000
.0000000000000000 .0000000000000000 .0000000000000000
.0000000000000000 .0000000000000000 .0000000000000000
.0000000000000000 .0000000000000000 .0000000000000000
.0000000000000000 .0000000000000000 .0000000000000000
.0000000000000000 .0000000000000000 .0000000000000000
.0000000000000000 .0000000000000000 .0000000000000000
.0000000000000000 .0000000000000000 .0000000000000000
.0000000000000000 .0000000000000000 .0000000000000000
.0000000000000000 .0000000000000000 .0000000000000000
.0000000000000000 .0000000000000000 .0000000000000000
.0000000000000000 .0000000000000000 .0000000000000000
51.2447560217031963 .3483739062433632 .0000000000000000
51.1392809531278942 .6596248353827682 .0000000000000000
50.9232944671513010 .6735687306025294 .0000000000000000
50.7338093888193242 .5540356525060079 .0000000000000000
50.6738144470673717 .2864920818394215 .0000000000000000