# vtk DataFile Version 3.1
cfd-iitm output (Simulation clock:-1.000000)
ASCII
DATASET STRUCTURED_GRID
DIMENSIONS 181 65 1
POINTS 11765 FLOAT
.0000000000000000 .0000000000000000 .000000
.0055555555555600 .0000000000000000 .000000
.0111111111111000 .0000000000000000 .000000
.0166666666667000 .0000000000000000 .000000
.0222222222222000 .0000000000000000 .000000
.0277777777778000 .0000000000000000 .000000
.0333333333333000 .0000000000000000 .000000
.0388888888889000 .0000000000000000 .000000
.0444444444444000 .0000000000000000 .000000
.0500000000000000 .0000000000000000 .000000
.0555555555556000 .0000000000000000 .000000
.0611111111111000 .0000000000000000 .000000
.0666666666667000 .0000000000000000 .000000
.0722222222222000 .0000000000000000 .000000
.0777777777778000 .0000000000000000 .000000
.0833333333333000 .0000000000000000 .000000
.0888888888889000 .0000000000000000 .000000
.0944444444444000 .0000000000000000 .000000
.1000000000000000 .0000000000000000 .000000
.1055555555560000 .0000000000000000 .000000
.1111111111110000 .0000000000000000 .000000
.1166666666670000 .0000000000000000 .000000
.1222222222220000 .0000000000000000 .000000
.1277777777780000 .0000000000000000 .000000
.1333333333330000 .0000000000000000 .000000
.1388888888890000 .0000000000000000 .000000
.1444444444440000 .0000000000000000 .000000
.1500000000000000 .0000000000000000 .000000
.1555555555560000 .0000000000000000 .000000
.1611111111110000 .0000000000000000 .000000
.1666666666670000 .0000000000000000 .000000
.1722222222220000 .0000000000000000 .000000
.1777777777780000 .0000000000000000 .000000
.1833333333330000 .0000000000000000 .000000
.1888888888890000 .0000000000000000 .000000
.1944444444440000 .0000000000000000 .000000
.2000000000000000 .0000000000000000 .000000
.2055555555560000 .0000000000000000 .000000
.2111111111110000 .0000000000000000 .000000
.2166666666670000 .0000000000000000 .000000
.2222222222220000 .0000000000000000 .000000
.2277777777780000 .0000000000000000 .000000
.2333333333330000 .0000000000000000 .000000
.2388888888890000 .0000000000000000 .000000
.2444444444440000 .0000000000000000 .000000
.2500000000000000 .0000000000000000 .000000
.2555555555560000 .0000000000000000 .000000
.2611111111110000 .0000000000000000 .000000
.2666666666670000 .0000000000000000 .000000
.2722222222220000 .0000000000000000 .000000
.2777777777780000 .0000000000000000 .000000
.2833333333330000 .0000000000000000 .000000
.2888888888890000 .0000000000000000 .000000
.2944444444440000 .0000000000000000 .000000
.3000000000000000 .0000000000000000 .000000
.3055555555560000 .0000000000000000 .000000
.3111111111110000 .0000000000000000 .000000
.3166666666670000 .0000000000000000 .000000
.3222222222220000 .0000000000000000 .000000
.3277777777780000 .0000000000000000 .000000
.3333333333330000 .0000000000000000 .000000
.3388888888890000 .0000000000000000 .000000
.3444444444440000 .0000000000000000 .000000
.3500000000000000 .0000000000000000 .000000
.3555555555560000 .0000000000000000 .000000
.3611111111110000 .0000000000000000 .000000
.3666666666670000 .0000000000000000 .000000
.3722222222220000 .0000000000000000 .000000
.3777777777780000 .0000000000000000 .000000
.3833333333330000 .0000000000000000 .000000
.3888888888890000 .0000000000000000 .000000
.3944444444440000 .0000000000000000 .000000
.4000000000000000 .0000000000000000 .000000
.4055555555560000 .0000000000000000 .000000
.4111111111110000 .0000000000000000 .000000
.4166666666670000 .0000000000000000 .000000
.4222222222220000 .0000000000000000 .000000
.4277777777780000 .0000000000000000 .000000
.4333333333330000 .0000000000000000 .000000
.4388888888890000 .0000000000000000 .000000
.4444444444440000 .0000000000000000 .000000
.4500000000000000 .0000000000000000 .000000
.4555555555560000 .0000000000000000 .000000
.4611111111110000 .0000000000000000 .000000
.4666666666670000 .0000000000000000 .000000
.4722222222220000 .0000000000000000 .000000
.4777777777780000 .0000000000000000 .000000
.4833333333330000 .0000000000000000 .000000
.4888888888890000 .0000000000000000 .000000
.4944444444440000 .0000000000000000 .000000
.5000000000000000 .0000000000000000 .000000
.5055555555560000 .0000000000000000 .000000
.5111111111110000 .0000000000000000 .000000
.5166666666670000 .0000000000000000 .000000
.5222222222220000 .0000000000000000 .000000
.5277777777779999 .0000000000000000 .000000
.5333333333330000 .0000000000000000 .000000
.5388888888890000 .0000000000000000 .000000
.5444444444440000 .0000000000000000 .000000
.5500000000000000 .0000000000000000 .000000
.5555555555560000 .0000000000000000 .000000
.5611111111110000 .0000000000000000 .000000
.5666666666670001 .0000000000000000 .000000
.5722222222220000 .0000000000000000 .000000
.5777777777780000 .0000000000000000 .000000
.5833333333330000 .0000000000000000 .000000
.5888888888890000 .0000000000000000 .000000
.5944444444440000 .0000000000000000 .000000
.6000000000000000 .0000000000000000 .000000
.6055555555560000 .0000000000000000 .000000
.6111111111110000 .0000000000000000 .000000
.6166666666670000 .0000000000000000 .000000
.6222222222220000 .0000000000000000 .000000
.6277777777780000 .0000000000000000 .000000
.6333333333330000 .0000000000000000 .000000
.6388888888890000 .0000000000000000 .000000
.6444444444440000 .0000000000000000 .000000
.6500000000000000 .0000000000000000 .000000
.6555555555560000 .0000000000000000 .000000
.6611111111110000 .0000000000000000 .000000
.6666666666670000 .0000000000000000 .000000
.6722222222220000 .0000000000000000 .000000
.6777777777780000 .0000000000000000 .000000
.6833333333329999 .0000000000000000 .000000
.6888888888890000 .0000000000000000 .000000
.6944444444440000 .0000000000000000 .000000
.7000000000000000 .0000000000000000 .000000
.7055555555560000 .0000000000000000 .000000
.7111111111110000 .0000000000000000 .000000
.7166666666670000 .0000000000000000 .000000
.7222222222220001 .0000000000000000 .000000
.7277777777780000 .0000000000000000 .000000
.7333333333330000 .0000000000000000 .000000
.7388888888890000 .0000000000000000 .000000
.7444444444440000 .0000000000000000 .000000
.7500000000000000 .0000000000000000 .000000
.7555555555560000 .0000000000000000 .000000
.7611111111110000 .0000000000000000 .000000
.7666666666670000 .0000000000000000 .000000
.7722222222220000 .0000000000000000 .000000
.7777777777779999 .0000000000000000 .000000
.7833333333330000 .0000000000000000 .000000
.7888888888890000 .0000000000000000 .000000
.7944444444440000 .0000000000000000 .000000
.8000000000000000 .0000000000000000 .000000
.8055555555560000 .0000000000000000 .000000
.8111111111110000 .0000000000000000 .000000
.8166666666670001 .0000000000000000 .000000
.8222222222220000 .0000000000000000 .000000
.8277777777780000 .0000000000000000 .000000
.8333333333330000 .0000000000000000 .000000
.8388888888890000 .0000000000000000 .000000
.8444444444440000 .0000000000000000 .000000
.8500000000000000 .0000000000000000 .000000
.8555555555560000 .0000000000000000 .000000
.8611111111110000 .0000000000000000 .000000
.8666666666670000 .0000000000000000 .000000
.8722222222220000 .0000000000000000 .000000
.8777777777780000 .0000000000000000 .000000
.8833333333330000 .0000000000000000 .000000
.8888888888890000 .0000000000000000 .000000
.8944444444440000 .0000000000000000 .000000
.9000000000000000 .0000000000000000 .000000
.9055555555560000 .0000000000000000 .000000
.9111111111110000 .0000000000000000 .000000
.9166666666670000 .0000000000000000 .000000
.9222222222220000 .0000000000000000 .000000
.9277777777780000 .0000000000000000 .000000
.9333333333329999 .0000000000000000 .000000
.9388888888890000 .0000000000000000 .000000
.9444444444440000 .0000000000000000 .000000
.9500000000000000 .0000000000000000 .000000
.9555555555560000 .0000000000000000 .000000
.9611111111110000 .0000000000000000 .000000
.9666666666670000 .0000000000000000 .000000
.9722222222220001 .0000000000000000 .000000
.9777777777780000 .0000000000000000 .000000
.9833333333330000 .0000000000000000 .000000
.9888888888890000 .0000000000000000 .000000
.9944444444440000 .0000000000000000 .000000
1.0000000000000000 .0000000000000000 .000000
.0000000000000000 .0031250000000000 .000000
.0055555555555600 .0031250000000000 .000000
.0111111111111000 .0031250000000000 .000000
.0166666666667000 .0031250000000000 .000000
.0222222222222000 .0031250000000000 .000000
.0277777777778000 .0031250000000000 .000000
.0333333333333000 .0031250000000000 .000000
.0388888888889000 .0031250000000000 .000000
.0444444444444000 .0031250000000000 .000000
.0500000000000000 .0031250000000000 .000000
.0555555555556000 .0031250000000000 .000000
.0611111111111000 .0031250000000000 .000000
.0666666666667000 .0031250000000000 .000000
.0722222222222000 .0031250000000000 .000000
.0777777777778000 .0031250000000000 .000000
.0833333333333000 .0031250000000000 .000000
.0888888888889000 .0031250000000000 .000000
.0944444444444000 .0031250000000000 .000000
.1000000000000000 .0031250000000000 .000000
.1055555555560000 .0031250000000000 .000000
.1111111111110000 .0031250000000000 .000000
.1166666666670000 .0031250000000000 .000000
.1222222222220000 .0031250000000000 .000000
.1277777777780000 .0031250000000000 .000000
.1333333333330000 .0031250000000000 .000000
.1388888888890000 .0031250000000000 .000000
.1444444444440000 .0031250000000000 .000000
.1500000000000000 .0031250000000000 .000000
.1555555555560000 .0031250000000000 .000000
.1611111111110000 .0031250000000000 .000000
.1666666666670000 .0031250000000000 .000000
.1722222222220000 .0031250000000000 .000000
.1777777777780000 .0031250000000000 .000000
.1833333333330000 .0031250000000000 .000000
.1888888888890000 .0031250000000000 .000000
.1944444444440000 .0031250000000000 .000000
.2000000000000000 .0031250000000000 .000000
.2055555555560000 .0031250000000000 .000000
.2111111111110000 .0031250000000000 .000000
.2166666666670000 .0031250000000000 .000000
.2222222222220000 .0031250000000000 .000000
.2277777777780000 .0031250000000000 .000000
.2333333333330000 .0031250000000000 .000000
[...]
CELL_DATA 11520
VECTORS Velocity FLOAT
51.2484009987455025 .0107219866047747 .0000000000000000
51.2800733342833155 .0124196693594800 .0000000000000000
51.3026282452004594 .0140622269709966 .0000000000000000
51.3212386144973820 .0152962752466687 .0000000000000000
51.3337425761828214 .0162265334873489 .0000000000000000
51.3422771189563321 .0169357897666662 .0000000000000000
51.3459641691503705 .0174305659846849 .0000000000000000
51.3466075051383299 .0176780848712556 .0000000000000000
51.3434751843482928 .0173804435933014 .0000000000000000
51.3341570755588350 .0177829084624928 .0000000000000000
51.3161942845309937 .0207460018673616 .0000000000000000
51.2883923008704770 .0209371576827809 .0000000000000000
51.2516856045847149 .0222717748472335 .0000000000000000
51.2087273991559684 .0235016368925902 .0000000000000000
51.1642039742751891 .0235805810463291 .0000000000000000
51.1215665511775015 .0228000151527937 .0000000000000000
51.0791394305482953 .0227950287983365 .0000000000000000
51.0322823765049165 .0241380284541363 .0000000000000000
50.9749909060696851 .0284519657812160 .0000000000000000
50.8964645428879123 .0316963647660357 .0000000000000000
50.7932430853743426 .0350211412069367 .0000000000000000
50.6739961568179140 .0382040352678276 .0000000000000000
50.5456459208117934 .0401805362855026 .0000000000000000
50.4115321605692017 .0418662471554868 .0000000000000000
50.2720759068691834 .0439395977030605 .0000000000000000
50.1255891722033837 .0470345429331532 .0000000000000000
49.9682525234776946 .0516836654287574 .0000000000000000
49.7949806718046730 .0581524116602407 .0000000000000000
49.6003158664075272 .0664047148031838 .0000000000000000
49.3793441376895430 .0762149823655006 .0000000000000000
49.1279743854540101 .0873860175719149 .0000000000000000
48.8426204174803686 .0999009084918680 .0000000000000000
48.5195521059528119 .1139637161250901 .0000000000000000
48.1543779324697852 .1298983967209261 .0000000000000000
47.7416689331168200 .1481899750500043 .0000000000000000
47.2740162615625010 .1697767411904204 .0000000000000000
46.7382741638513366 .1975156642869136 .0000000000000000
46.1051474939357249 .2384746110547181 .0000000000000000
45.3070748218597501 .3091084353800224 .0000000000000000
44.2000557140703236 .4379461594990403 .0000000000000000
42.5157615023060984 .6708602570902189 .0000000000000000
39.8155745033212440 1.0569769022269484 .0000000000000000
35.4964106500733649 1.6304291660435637 .0000000000000000
28.8972782663737817 2.3750701839831336 .0000000000000000
19.5427095207154586 3.0764467946969178 .0000000000000000
7.9167367460996951 3.9661493624341038 .0000000000000000
-5.5059557094797746 -1.6650906041218496 .0000000000000000
-2.8755505753448034 -3.0626859390687233 .0000000000000000
.0000000000000000 .0000000000000000 .0000000000000000
.0000000000000000 .0000000000000000 .0000000000000000
.0000000000000000 .0000000000000000 .0000000000000000
.0000000000000000 .0000000000000000 .0000000000000000
.0000000000000000 .0000000000000000 .0000000000000000
.0000000000000000 .0000000000000000 .0000000000000000
.0000000000000000 .0000000000000000 .0000000000000000
.0000000000000000 .0000000000000000 .0000000000000000
.0000000000000000 .0000000000000000 .0000000000000000
.0000000000000000 .0000000000000000 .0000000000000000
.0000000000000000 .0000000000000000 .0000000000000000
.0000000000000000 .0000000000000000 .0000000000000000
.0000000000000000 .0000000000000000 .0000000000000000
.0000000000000000 .0000000000000000 .0000000000000000
.0000000000000000 .0000000000000000 .0000000000000000
.0000000000000000 .0000000000000000 .0000000000000000
.0000000000000000 .0000000000000000 .0000000000000000
.0000000000000000 .0000000000000000 .0000000000000000
.0000000000000000 .0000000000000000 .0000000000000000
.0000000000000000 .0000000000000000 .0000000000000000
.0000000000000000 .0000000000000000 .0000000000000000
.0000000000000000 .0000000000000000 .0000000000000000
.0000000000000000 .0000000000000000 .0000000000000000
.0000000000000000 .0000000000000000 .0000000000000000
.0000000000000000 .0000000000000000 .0000000000000000
.0000000000000000 .0000000000000000 .0000000000000000
.0000000000000000 .0000000000000000 .0000000000000000
.0000000000000000 .0000000000000000 .0000000000000000
.0000000000000000 .0000000000000000 .0000000000000000
.0000000000000000 .0000000000000000 .0000000000000000
.0000000000000000 .0000000000000000 .0000000000000000
.0000000000000000 .0000000000000000 .0000000000000000
.0000000000000000 .0000000000000000 .0000000000000000
.0000000000000000 .0000000000000000 .0000000000000000
.0000000000000000 .0000000000000000 .0000000000000000
.0000000000000000 .0000000000000000 .0000000000000000
.0000000000000000 .0000000000000000 .0000000000000000
.0000000000000000 .0000000000000000 .0000000000000000
.0000000000000000 .0000000000000000 .0000000000000000
.0000000000000000 .0000000000000000 .0000000000000000
.0000000000000000 .0000000000000000 .0000000000000000
.0000000000000000 .0000000000000000 .0000000000000000
.0000000000000000 .0000000000000000 .0000000000000000
.0000000000000000 .0000000000000000 .0000000000000000
.0000000000000000 .0000000000000000 .0000000000000000
.0000000000000000 .0000000000000000 .0000000000000000
.0000000000000000 .0000000000000000 .0000000000000000
.0000000000000000 .0000000000000000 .0000000000000000
.0000000000000000 .0000000000000000 .0000000000000000
.0000000000000000 .0000000000000000 .0000000000000000
.0000000000000000 .0000000000000000 .0000000000000000
.0000000000000000 .0000000000000000 .0000000000000000
.0000000000000000 .0000000000000000 .0000000000000000
.0000000000000000 .0000000000000000 .0000000000000000
.0000000000000000 .0000000000000000 .0000000000000000
.0000000000000000 .0000000000000000 .0000000000000000
.0000000000000000 .0000000000000000 .0000000000000000
.0000000000000000 .0000000000000000 .0000000000000000
.0000000000000000 .0000000000000000 .0000000000000000
.0000000000000000 .0000000000000000 .0000000000000000
.0000000000000000 .0000000000000000 .0000000000000000
.0000000000000000 .0000000000000000 .0000000000000000
.0000000000000000 .0000000000000000 .0000000000000000
.0000000000000000 .0000000000000000 .0000000000000000
.0000000000000000 .0000000000000000 .0000000000000000
.0000000000000000 .0000000000000000 .0000000000000000
.0000000000000000 .0000000000000000 .0000000000000000
.0000000000000000 .0000000000000000 .0000000000000000
.0000000000000000 .0000000000000000 .0000000000000000
.0000000000000000 .0000000000000000 .0000000000000000
.0000000000000000 .0000000000000000 .0000000000000000
.0000000000000000 .0000000000000000 .0000000000000000
.0000000000000000 .0000000000000000 .0000000000000000
.0000000000000000 .0000000000000000 .0000000000000000
.0000000000000000 .0000000000000000 .0000000000000000
.0000000000000000 .0000000000000000 .0000000000000000
.0000000000000000 .0000000000000000 .0000000000000000
.0000000000000000 .0000000000000000 .0000000000000000
.0000000000000000 .0000000000000000 .0000000000000000
.0000000000000000 .0000000000000000 .0000000000000000
.0000000000000000 .0000000000000000 .0000000000000000
.0000000000000000 .0000000000000000 .0000000000000000
.0000000000000000 .0000000000000000 .0000000000000000
.0000000000000000 .0000000000000000 .0000000000000000
.0000000000000000 .0000000000000000 .0000000000000000
.0000000000000000 .0000000000000000 .0000000000000000
.0000000000000000 .0000000000000000 .0000000000000000
.0000000000000000 .0000000000000000 .0000000000000000
.0000000000000000 .0000000000000000 .0000000000000000
.0000000000000000 .0000000000000000 .0000000000000000
.0000000000000000 .0000000000000000 .0000000000000000
.0000000000000000 .0000000000000000 .0000000000000000
.0000000000000000 .0000000000000000 .0000000000000000
.0000000000000000 .0000000000000000 .0000000000000000
.0000000000000000 .0000000000000000 .0000000000000000
.0000000000000000 .0000000000000000 .0000000000000000
.0000000000000000 .0000000000000000 .0000000000000000
.0000000000000000 .0000000000000000 .0000000000000000
.0000000000000000 .0000000000000000 .0000000000000000
.0000000000000000 .0000000000000000 .0000000000000000
.0000000000000000 .0000000000000000 .0000000000000000
.0000000000000000 .0000000000000000 .0000000000000000
.0000000000000000 .0000000000000000 .0000000000000000
.0000000000000000 .0000000000000000 .0000000000000000
.0000000000000000 .0000000000000000 .0000000000000000
.0000000000000000 .0000000000000000 .0000000000000000
.0000000000000000 .0000000000000000 .0000000000000000
.0000000000000000 .0000000000000000 .0000000000000000
.0000000000000000 .0000000000000000 .0000000000000000
.0000000000000000 .0000000000000000 .0000000000000000
.0000000000000000 .0000000000000000 .0000000000000000
.0000000000000000 .0000000000000000 .0000000000000000
.0000000000000000 .0000000000000000 .0000000000000000
.0000000000000000 .0000000000000000 .0000000000000000
.0000000000000000 .0000000000000000 .0000000000000000
.0000000000000000 .0000000000000000 .0000000000000000
.0000000000000000 .0000000000000000 .0000000000000000
.0000000000000000 .0000000000000000 .0000000000000000
.0000000000000000 .0000000000000000 .0000000000000000
.0000000000000000 .0000000000000000 .0000000000000000
.0000000000000000 .0000000000000000 .0000000000000000
.0000000000000000 .0000000000000000 .0000000000000000
.0000000000000000 .0000000000000000 .0000000000000000
.0000000000000000 .0000000000000000 .0000000000000000
.0000000000000000 .0000000000000000 .0000000000000000
.0000000000000000 .0000000000000000 .0000000000000000
.0000000000000000 .0000000000000000 .0000000000000000
.0000000000000000 .0000000000000000 .0000000000000000
.0000000000000000 .0000000000000000 .0000000000000000
.0000000000000000 .0000000000000000 .0000000000000000
.0000000000000000 .0000000000000000 .0000000000000000
.0000000000000000 .0000000000000000 .0000000000000000
51.2628662845690783 .0039969302970663 .0000000000000000
51.3094282366935417 .0072539856380930 .0000000000000000
51.3479696816355968 .0106320814183248 .0000000000000000
51.3834675231752342 .0129313874707934 .0000000000000000
51.4137444465670796 .0147886765970858 .0000000000000000
51.4409194749994541 .0159051109167940 .0000000000000000
51.4638525428156797 .0165615895001191 .0000000000000000
51.4838108568229700 .0166055598816840 .0000000000000000
51.5002417454996930 .0162400899084969 .0000000000000000
51.5122370081323950 .0202594789609502 .0000000000000000
51.5124586978880572 .0253542674870205 .0000000000000000
51.5012013385369656 .0304272537052511 .0000000000000000
51.4846953589448830 .0332323094448578 .0000000000000000
51.4617890859943046 .0330065598715531 .0000000000000000
51.4381046740140917 .0268921875222908 .0000000000000000
51.4206527911217322 .0206730243671291 .0000000000000000
51.4041756034695680 .0184307332216839 .0000000000000000
51.3837870956643457 .0204464696132485 .0000000000000000
51.3555412002143754 .0307270124414578 .0000000000000000
51.3057544307630096 .0510289725562115 .0000000000000000
51.2320892008736593 .0658466816702902 .0000000000000000
51.1466119162302846 .0729371612939259 .0000000000000000
51.0526201386509584 .0766507895826108 .0000000000000000
50.9538635652557232 .0791776466872582 .0000000000000000
50.8509742033787049 .0824556792799702 .0000000000000000
50.7432134522275646 .0881700669243176 .0000000000000000
50.6280271762463627 .0977444632576466 .0000000000000000
50.5018921459940131 .1118355775660508 .0000000000000000
50.3610921261529825 .1302101483928839 .0000000000000000
50.2025489554533522 .1520601028337227 .0000000000000000
50.0241282526326358 .1765904363312707 .0000000000000000
49.8244465433113106 .2034588235962691 .0000000000000000
49.6023910731381577 .2328406179672744 .0000000000000000
49.3568846760725179 .2651268315484578 .0000000000000000
49.0871094508229788 .3006531815909964 .0000000000000000
48.7935726908861440 .3401808588909042 .0000000000000000
48.4789425485408145 .3872145100552720 .0000000000000000
48.1482574002221853 .4538963136188307 .0000000000000000
47.8028682762099706 .5709215051746837 .0000000000000000
47.4270848303692674 .8015220434260222 .0000000000000000
46.9511922382039302 1.2514333152961319 .0000000000000000
46.2014987915253244 2.0701726526282327 .0000000000000000
44.8257393501439054 3.4083392592863335 .0000000000000000
42.2183273271084261 5.4038902227001566 .0000000000000000
37.3933793464063484 7.5439883598595205 .0000000000000000
29.9731504180232662 10.3773596638622418 .0000000000000000
19.3291709607848006 5.8831480614595240 .0000000000000000
6.7293369026429852 4.0908761311906492 .0000000000000000
-3.8831839526969034 -1.2050267061434461 .0000000000000000
-3.8589267771378912 -2.9157684502657562 .0000000000000000
.0000000000000000 .0000000000000000 .0000000000000000
.0000000000000000 .0000000000000000 .0000000000000000
.0000000000000000 .0000000000000000 .0000000000000000
.0000000000000000 .0000000000000000 .0000000000000000
.0000000000000000 .0000000000000000 .0000000000000000
.0000000000000000 .0000000000000000 .0000000000000000
.0000000000000000 .0000000000000000 .0000000000000000
.0000000000000000 .0000000000000000 .0000000000000000
.0000000000000000 .0000000000000000 .0000000000000000
.0000000000000000 .0000000000000000 .0000000000000000
.0000000000000000 .0000000000000000 .0000000000000000
.0000000000000000 .0000000000000000 .0000000000000000
.0000000000000000 .0000000000000000 .0000000000000000
.0000000000000000 .0000000000000000 .0000000000000000
.0000000000000000 .0000000000000000 .0000000000000000
.0000000000000000 .0000000000000000 .0000000000000000
.0000000000000000 .0000000000000000 .0000000000000000
.0000000000000000 .0000000000000000 .0000000000000000
.0000000000000000 .0000000000000000 .0000000000000000
.0000000000000000 .0000000000000000 .0000000000000000
.0000000000000000 .0000000000000000 .0000000000000000
.0000000000000000 .0000000000000000 .0000000000000000
.0000000000000000 .0000000000000000 .0000000000000000
.0000000000000000 .0000000000000000 .0000000000000000
.0000000000000000 .0000000000000000 .0000000000000000
.0000000000000000 .0000000000000000 .0000000000000000
.0000000000000000 .0000000000000000 .0000000000000000
.0000000000000000 .0000000000000000 .0000000000000000
.0000000000000000 .0000000000000000 .0000000000000000
.0000000000000000 .0000000000000000 .0000000000000000
.0000000000000000 .0000000000000000 .0000000000000000
.0000000000000000 .0000000000000000 .0000000000000000
.0000000000000000 .0000000000000000 .0000000000000000
.0000000000000000 .0000000000000000 .0000000000000000
.0000000000000000 .0000000000000000 .0000000000000000
.0000000000000000 .0000000000000000 .0000000000000000
.0000000000000000 .0000000000000000 .0000000000000000
.0000000000000000 .0000000000000000 .0000000000000000
.0000000000000000 .0000000000000000 .0000000000000000
.0000000000000000 .0000000000000000 .0000000000000000
.0000000000000000 .0000000000000000 .0000000000000000
.0000000000000000 .0000000000000000 .0000000000000000
.0000000000000000 .0000000000000000 .0000000000000000
.0000000000000000 .0000000000000000 .0000000000000000
.0000000000000000 .0000000000000000 .0000000000000000
.0000000000000000 .0000000000000000 .0000000000000000
.0000000000000000 .0000000000000000 .0000000000000000
.0000000000000000 .0000000000000000 .0000000000000000
.0000000000000000 .0000000000000000 .0000000000000000
.0000000000000000 .0000000000000000 .0000000000000000
.0000000000000000 .0000000000000000 .0000000000000000
.0000000000000000 .0000000000000000 .0000000000000000
.0000000000000000 .0000000000000000 .0000000000000000
.0000000000000000 .0000000000000000 .0000000000000000
.0000000000000000 .0000000000000000 .0000000000000000
.0000000000000000 .0000000000000000 .0000000000000000
.0000000000000000 .0000000000000000 .0000000000000000
.0000000000000000 .0000000000000000 .0000000000000000
.0000000000000000 .0000000000000000 .0000000000000000
.0000000000000000 .0000000000000000 .0000000000000000
.0000000000000000 .0000000000000000 .0000000000000000
.0000000000000000 .0000000000000000 .0000000000000000
.0000000000000000 .0000000000000000 .0000000000000000
.0000000000000000 .0000000000000000 .0000000000000000
.0000000000000000 .0000000000000000 .0000000000000000
.0000000000000000 .0000000000000000 .0000000000000000
.0000000000000000 .0000000000000000 .0000000000000000
.0000000000000000 .0000000000000000 .0000000000000000
.0000000000000000 .0000000000000000 .0000000000000000
.0000000000000000 .0000000000000000 .0000000000000000
.0000000000000000 .0000000000000000 .0000000000000000
.0000000000000000 .0000000000000000 .0000000000000000
.0000000000000000 .0000000000000000 .0000000000000000
.0000000000000000 .0000000000000000 .0000000000000000
.0000000000000000 .0000000000000000 .0000000000000000
.0000000000000000 .0000000000000000 .0000000000000000
.0000000000000000 .0000000000000000 .0000000000000000
.0000000000000000 .0000000000000000 .0000000000000000
.0000000000000000 .0000000000000000 .0000000000000000
.0000000000000000 .0000000000000000 .0000000000000000
.0000000000000000 .0000000000000000 .0000000000000000
.0000000000000000 .0000000000000000 .0000000000000000
.0000000000000000 .0000000000000000 .0000000000000000
.0000000000000000 .0000000000000000 .0000000000000000
.0000000000000000 .0000000000000000 .0000000000000000
.0000000000000000 .0000000000000000 .0000000000000000
.0000000000000000 .0000000000000000 .0000000000000000
.0000000000000000 .0000000000000000 .0000000000000000
.0000000000000000 .0000000000000000 .0000000000000000
.0000000000000000 .0000000000000000 .0000000000000000
.0000000000000000 .0000000000000000 .0000000000000000
.0000000000000000 .0000000000000000 .0000000000000000
.0000000000000000 .0000000000000000 .0000000000000000
.0000000000000000 .0000000000000000 .0000000000000000
.0000000000000000 .0000000000000000 .0000000000000000
.0000000000000000 .0000000000000000 .0000000000000000
.0000000000000000 .0000000000000000 .0000000000000000
.0000000000000000 .0000000000000000 .0000000000000000
.0000000000000000 .0000000000000000 .0000000000000000
.0000000000000000 .0000000000000000 .0000000000000000
.0000000000000000 .0000000000000000 .0000000000000000
.0000000000000000 .0000000000000000 .0000000000000000
.0000000000000000 .0000000000000000 .0000000000000000
.0000000000000000 .0000000000000000 .0000000000000000
.0000000000000000 .0000000000000000 .0000000000000000
.0000000000000000 .0000000000000000 .0000000000000000
.0000000000000000 .0000000000000000 .0000000000000000
.0000000000000000 .0000000000000000 .0000000000000000
.0000000000000000 .0000000000000000 .0000000000000000
.0000000000000000 .0000000000000000 .0000000000000000
.0000000000000000 .0000000000000000 .0000000000000000
.0000000000000000 .0000000000000000 .0000000000000000
.0000000000000000 .0000000000000000 .0000000000000000
.0000000000000000 .0000000000000000 .0000000000000000
.0000000000000000 .0000000000000000 .0000000000000000
.0000000000000000 .0000000000000000 .0000000000000000
.0000000000000000 .0000000000000000 .0000000000000000
.0000000000000000 .0000000000000000 .0000000000000000
.0000000000000000 .0000000000000000 .0000000000000000
.0000000000000000 .0000000000000000 .0000000000000000
.0000000000000000 .0000000000000000 .0000000000000000
.0000000000000000 .0000000000000000 .0000000000000000
.0000000000000000 .0000000000000000 .0000000000000000
.0000000000000000 .0000000000000000 .0000000000000000
.0000000000000000 .0000000000000000 .0000000000000000
.0000000000000000 .0000000000000000 .0000000000000000
.0000000000000000 .0000000000000000 .0000000000000000
.0000000000000000 .0000000000000000 .0000000000000000
.0000000000000000 .0000000000000000 .0000000000000000
.0000000000000000 .0000000000000000 .0000000000000000
51.2605260091536792 .0093005661246464 .0000000000000000
51.3047584438137108 .0149558044716420 .0000000000000000
51.3412551196580225 .0204390705700924 .0000000000000000
51.3745519375422077 .0241877123466382 .0000000000000000
51.4026173977074734 .0271094935015802 .0000000000000000