# vtk DataFile Version 3.1
cfd-iitm output (Simulation clock:-1.000000)
ASCII
DATASET STRUCTURED_GRID
DIMENSIONS 181 65 1
POINTS 11765 FLOAT
.0000000000000000 .0000000000000000 .000000
.0055555555555600 .0000000000000000 .000000
.0111111111111000 .0000000000000000 .000000
.0166666666667000 .0000000000000000 .000000
.0222222222222000 .0000000000000000 .000000
.0277777777778000 .0000000000000000 .000000
.0333333333333000 .0000000000000000 .000000
.0388888888889000 .0000000000000000 .000000
.0444444444444000 .0000000000000000 .000000
.0500000000000000 .0000000000000000 .000000
.0555555555556000 .0000000000000000 .000000
.0611111111111000 .0000000000000000 .000000
.0666666666667000 .0000000000000000 .000000
.0722222222222000 .0000000000000000 .000000
.0777777777778000 .0000000000000000 .000000
.0833333333333000 .0000000000000000 .000000
.0888888888889000 .0000000000000000 .000000
.0944444444444000 .0000000000000000 .000000
.1000000000000000 .0000000000000000 .000000
.1055555555560000 .0000000000000000 .000000
.1111111111110000 .0000000000000000 .000000
.1166666666670000 .0000000000000000 .000000
.1222222222220000 .0000000000000000 .000000
.1277777777780000 .0000000000000000 .000000
.1333333333330000 .0000000000000000 .000000
.1388888888890000 .0000000000000000 .000000
.1444444444440000 .0000000000000000 .000000
.1500000000000000 .0000000000000000 .000000
.1555555555560000 .0000000000000000 .000000
.1611111111110000 .0000000000000000 .000000
.1666666666670000 .0000000000000000 .000000
.1722222222220000 .0000000000000000 .000000
.1777777777780000 .0000000000000000 .000000
.1833333333330000 .0000000000000000 .000000
.1888888888890000 .0000000000000000 .000000
.1944444444440000 .0000000000000000 .000000
.2000000000000000 .0000000000000000 .000000
.2055555555560000 .0000000000000000 .000000
.2111111111110000 .0000000000000000 .000000
.2166666666670000 .0000000000000000 .000000
.2222222222220000 .0000000000000000 .000000
.2277777777780000 .0000000000000000 .000000
.2333333333330000 .0000000000000000 .000000
.2388888888890000 .0000000000000000 .000000
.2444444444440000 .0000000000000000 .000000
.2500000000000000 .0000000000000000 .000000
.2555555555560000 .0000000000000000 .000000
.2611111111110000 .0000000000000000 .000000
.2666666666670000 .0000000000000000 .000000
.2722222222220000 .0000000000000000 .000000
.2777777777780000 .0000000000000000 .000000
.2833333333330000 .0000000000000000 .000000
.2888888888890000 .0000000000000000 .000000
.2944444444440000 .0000000000000000 .000000
.3000000000000000 .0000000000000000 .000000
.3055555555560000 .0000000000000000 .000000
.3111111111110000 .0000000000000000 .000000
.3166666666670000 .0000000000000000 .000000
.3222222222220000 .0000000000000000 .000000
.3277777777780000 .0000000000000000 .000000
.3333333333330000 .0000000000000000 .000000
.3388888888890000 .0000000000000000 .000000
.3444444444440000 .0000000000000000 .000000
.3500000000000000 .0000000000000000 .000000
.3555555555560000 .0000000000000000 .000000
.3611111111110000 .0000000000000000 .000000
.3666666666670000 .0000000000000000 .000000
.3722222222220000 .0000000000000000 .000000
.3777777777780000 .0000000000000000 .000000
.3833333333330000 .0000000000000000 .000000
.3888888888890000 .0000000000000000 .000000
.3944444444440000 .0000000000000000 .000000
.4000000000000000 .0000000000000000 .000000
.4055555555560000 .0000000000000000 .000000
.4111111111110000 .0000000000000000 .000000
.4166666666670000 .0000000000000000 .000000
.4222222222220000 .0000000000000000 .000000
.4277777777780000 .0000000000000000 .000000
.4333333333330000 .0000000000000000 .000000
.4388888888890000 .0000000000000000 .000000
.4444444444440000 .0000000000000000 .000000
.4500000000000000 .0000000000000000 .000000
.4555555555560000 .0000000000000000 .000000
.4611111111110000 .0000000000000000 .000000
.4666666666670000 .0000000000000000 .000000
.4722222222220000 .0000000000000000 .000000
.4777777777780000 .0000000000000000 .000000
.4833333333330000 .0000000000000000 .000000
.4888888888890000 .0000000000000000 .000000
.4944444444440000 .0000000000000000 .000000
.5000000000000000 .0000000000000000 .000000
.5055555555560000 .0000000000000000 .000000
.5111111111110000 .0000000000000000 .000000
.5166666666670000 .0000000000000000 .000000
.5222222222220000 .0000000000000000 .000000
.5277777777779999 .0000000000000000 .000000
.5333333333330000 .0000000000000000 .000000
.5388888888890000 .0000000000000000 .000000
.5444444444440000 .0000000000000000 .000000
.5500000000000000 .0000000000000000 .000000
.5555555555560000 .0000000000000000 .000000
.5611111111110000 .0000000000000000 .000000
.5666666666670001 .0000000000000000 .000000
.5722222222220000 .0000000000000000 .000000
.5777777777780000 .0000000000000000 .000000
.5833333333330000 .0000000000000000 .000000
.5888888888890000 .0000000000000000 .000000
.5944444444440000 .0000000000000000 .000000
.6000000000000000 .0000000000000000 .000000
.6055555555560000 .0000000000000000 .000000
.6111111111110000 .0000000000000000 .000000
.6166666666670000 .0000000000000000 .000000
.6222222222220000 .0000000000000000 .000000
.6277777777780000 .0000000000000000 .000000
.6333333333330000 .0000000000000000 .000000
.6388888888890000 .0000000000000000 .000000
.6444444444440000 .0000000000000000 .000000
.6500000000000000 .0000000000000000 .000000
.6555555555560000 .0000000000000000 .000000
.6611111111110000 .0000000000000000 .000000
.6666666666670000 .0000000000000000 .000000
.6722222222220000 .0000000000000000 .000000
.6777777777780000 .0000000000000000 .000000
.6833333333329999 .0000000000000000 .000000
.6888888888890000 .0000000000000000 .000000
.6944444444440000 .0000000000000000 .000000
.7000000000000000 .0000000000000000 .000000
.7055555555560000 .0000000000000000 .000000
.7111111111110000 .0000000000000000 .000000
.7166666666670000 .0000000000000000 .000000
.7222222222220001 .0000000000000000 .000000
.7277777777780000 .0000000000000000 .000000
.7333333333330000 .0000000000000000 .000000
.7388888888890000 .0000000000000000 .000000
.7444444444440000 .0000000000000000 .000000
.7500000000000000 .0000000000000000 .000000
.7555555555560000 .0000000000000000 .000000
.7611111111110000 .0000000000000000 .000000
.7666666666670000 .0000000000000000 .000000
.7722222222220000 .0000000000000000 .000000
.7777777777779999 .0000000000000000 .000000
.7833333333330000 .0000000000000000 .000000
.7888888888890000 .0000000000000000 .000000
.7944444444440000 .0000000000000000 .000000
.8000000000000000 .0000000000000000 .000000
.8055555555560000 .0000000000000000 .000000
.8111111111110000 .0000000000000000 .000000
.8166666666670001 .0000000000000000 .000000
.8222222222220000 .0000000000000000 .000000
.8277777777780000 .0000000000000000 .000000
.8333333333330000 .0000000000000000 .000000
.8388888888890000 .0000000000000000 .000000
.8444444444440000 .0000000000000000 .000000
.8500000000000000 .0000000000000000 .000000
.8555555555560000 .0000000000000000 .000000
.8611111111110000 .0000000000000000 .000000
.8666666666670000 .0000000000000000 .000000
.8722222222220000 .0000000000000000 .000000
.8777777777780000 .0000000000000000 .000000
.8833333333330000 .0000000000000000 .000000
.8888888888890000 .0000000000000000 .000000
.8944444444440000 .0000000000000000 .000000
.9000000000000000 .0000000000000000 .000000
.9055555555560000 .0000000000000000 .000000
.9111111111110000 .0000000000000000 .000000
.9166666666670000 .0000000000000000 .000000
.9222222222220000 .0000000000000000 .000000
.9277777777780000 .0000000000000000 .000000
.9333333333329999 .0000000000000000 .000000
.9388888888890000 .0000000000000000 .000000
.9444444444440000 .0000000000000000 .000000
.9500000000000000 .0000000000000000 .000000
.9555555555560000 .0000000000000000 .000000
.9611111111110000 .0000000000000000 .000000
.9666666666670000 .0000000000000000 .000000
.9722222222220001 .0000000000000000 .000000
.9777777777780000 .0000000000000000 .000000
.9833333333330000 .0000000000000000 .000000
.9888888888890000 .0000000000000000 .000000
.9944444444440000 .0000000000000000 .000000
1.0000000000000000 .0000000000000000 .000000
.0000000000000000 .0031250000000000 .000000
.0055555555555600 .0031250000000000 .000000
.0111111111111000 .0031250000000000 .000000
.0166666666667000 .0031250000000000 .000000
.0222222222222000 .0031250000000000 .000000
.0277777777778000 .0031250000000000 .000000
.0333333333333000 .0031250000000000 .000000
.0388888888889000 .0031250000000000 .000000
.0444444444444000 .0031250000000000 .000000
.0500000000000000 .0031250000000000 .000000
.0555555555556000 .0031250000000000 .000000
.0611111111111000 .0031250000000000 .000000
.0666666666667000 .0031250000000000 .000000
.0722222222222000 .0031250000000000 .000000
.0777777777778000 .0031250000000000 .000000
.0833333333333000 .0031250000000000 .000000
.0888888888889000 .0031250000000000 .000000
.0944444444444000 .0031250000000000 .000000
.1000000000000000 .0031250000000000 .000000
.1055555555560000 .0031250000000000 .000000
.1111111111110000 .0031250000000000 .000000
.1166666666670000 .0031250000000000 .000000
.1222222222220000 .0031250000000000 .000000
.1277777777780000 .0031250000000000 .000000
.1333333333330000 .0031250000000000 .000000
.1388888888890000 .0031250000000000 .000000
.1444444444440000 .0031250000000000 .000000
.1500000000000000 .0031250000000000 .000000
.1555555555560000 .0031250000000000 .000000
.1611111111110000 .0031250000000000 .000000
.1666666666670000 .0031250000000000 .000000
.1722222222220000 .0031250000000000 .000000
.1777777777780000 .0031250000000000 .000000
.1833333333330000 .0031250000000000 .000000
.1888888888890000 .0031250000000000 .000000
.1944444444440000 .0031250000000000 .000000
.2000000000000000 .0031250000000000 .000000
.2055555555560000 .0031250000000000 .000000
.2111111111110000 .0031250000000000 .000000
.2166666666670000 .0031250000000000 .000000
.2222222222220000 .0031250000000000 .000000
.2277777777780000 .0031250000000000 .000000
.2333333333330000 .0031250000000000 .000000
[...]
CELL_DATA 11520
VECTORS Velocity FLOAT
51.7724657181777772 .0054037626964602 .0000000000000000
52.4218672202150771 -.0008433732897915 .0000000000000000
53.0583814274279035 -.0083114208970205 .0000000000000000
53.7497998737457507 -.0139804677460109 .0000000000000000
54.4385398226162280 -.0139492187582689 .0000000000000000
55.1367428501983383 -.0112019292142923 .0000000000000000
55.8167791564755049 -.0033517883260170 .0000000000000000
56.4751053996691965 .0088455396545352 .0000000000000000
57.1046641975354419 .0163151198071231 .0000000000000000
57.7267986550292278 .0176249428587174 .0000000000000000
58.3564665425396925 .0164829777149360 .0000000000000000
59.0014173915261892 .0121726160699276 .0000000000000000
59.6581097595854644 .0116192232959562 .0000000000000000
60.3135459162256851 .0128147569729691 .0000000000000000
60.9614074048996244 .0176565997583085 .0000000000000000
61.5860528382060224 .0226293231557447 .0000000000000000
62.1798139279724253 .0304340615456161 .0000000000000000
62.7504591729477923 .0346134228748691 .0000000000000000
63.3120368245083043 .0350605762295747 .0000000000000000
63.8696564721165885 .0350656268368566 .0000000000000000
64.4225195727183859 .0356408551233770 .0000000000000000
64.9656179877541291 .0382540676893447 .0000000000000000
65.4896725332236400 .0436035745018838 .0000000000000000
65.9854947444647593 .0510621584341239 .0000000000000000
66.4469418273417887 .0594995727060041 .0000000000000000
66.8710152655977907 .0681035524228143 .0000000000000000
67.2566866616328269 .0764821709280989 .0000000000000000
67.6035540021619141 .0846570861301921 .0000000000000000
67.9106086359492593 .0932981282313875 .0000000000000000
68.1744352102416826 .1026386735347119 .0000000000000000
68.3901137579721023 .1153634110904536 .0000000000000000
68.5483257429268633 .1268075064964453 .0000000000000000
68.6432416989992475 .1542493172992567 .0000000000000000
68.6623979589733722 .1494304177687921 .0000000000000000
68.5722787349608893 .2015411429642905 .0000000000000000
68.3668144712794117 .2211171723817308 .0000000000000000
68.0369260014182657 .2565781015091874 .0000000000000000
67.5644439526948020 .2927938747174915 .0000000000000000
66.9136927398992754 .3493046483185673 .0000000000000000
65.9558974951075925 .4486095894223081 .0000000000000000
64.4453511469067024 .6687666673979331 .0000000000000000
61.6897640210348186 1.1415333388541826 .0000000000000000
56.5700211330251079 2.1111897192235194 .0000000000000000
47.1823433728479174 3.5130468630752603 .0000000000000000
32.2481384010096050 4.9521214305151684 .0000000000000000
13.1673528007996374 6.6402702389165578 .0000000000000000
-8.9843303087528206 -2.5818582590209127 .0000000000000000
-5.1799446554744168 -5.3702018237599898 .0000000000000000
.0000000000000000 .0000000000000000 .0000000000000000
.0000000000000000 .0000000000000000 .0000000000000000
.0000000000000000 .0000000000000000 .0000000000000000
.0000000000000000 .0000000000000000 .0000000000000000
.0000000000000000 .0000000000000000 .0000000000000000
.0000000000000000 .0000000000000000 .0000000000000000
.0000000000000000 .0000000000000000 .0000000000000000
.0000000000000000 .0000000000000000 .0000000000000000
.0000000000000000 .0000000000000000 .0000000000000000
.0000000000000000 .0000000000000000 .0000000000000000
.0000000000000000 .0000000000000000 .0000000000000000
.0000000000000000 .0000000000000000 .0000000000000000
.0000000000000000 .0000000000000000 .0000000000000000
.0000000000000000 .0000000000000000 .0000000000000000
.0000000000000000 .0000000000000000 .0000000000000000
.0000000000000000 .0000000000000000 .0000000000000000
.0000000000000000 .0000000000000000 .0000000000000000
.0000000000000000 .0000000000000000 .0000000000000000
.0000000000000000 .0000000000000000 .0000000000000000
.0000000000000000 .0000000000000000 .0000000000000000
.0000000000000000 .0000000000000000 .0000000000000000
.0000000000000000 .0000000000000000 .0000000000000000
.0000000000000000 .0000000000000000 .0000000000000000
.0000000000000000 .0000000000000000 .0000000000000000
.0000000000000000 .0000000000000000 .0000000000000000
.0000000000000000 .0000000000000000 .0000000000000000
.0000000000000000 .0000000000000000 .0000000000000000
.0000000000000000 .0000000000000000 .0000000000000000
.0000000000000000 .0000000000000000 .0000000000000000
.0000000000000000 .0000000000000000 .0000000000000000
.0000000000000000 .0000000000000000 .0000000000000000
.0000000000000000 .0000000000000000 .0000000000000000
.0000000000000000 .0000000000000000 .0000000000000000
.0000000000000000 .0000000000000000 .0000000000000000
.0000000000000000 .0000000000000000 .0000000000000000
.0000000000000000 .0000000000000000 .0000000000000000
.0000000000000000 .0000000000000000 .0000000000000000
.0000000000000000 .0000000000000000 .0000000000000000
.0000000000000000 .0000000000000000 .0000000000000000
.0000000000000000 .0000000000000000 .0000000000000000
.0000000000000000 .0000000000000000 .0000000000000000
.0000000000000000 .0000000000000000 .0000000000000000
.0000000000000000 .0000000000000000 .0000000000000000
.0000000000000000 .0000000000000000 .0000000000000000
.0000000000000000 .0000000000000000 .0000000000000000
.0000000000000000 .0000000000000000 .0000000000000000
.0000000000000000 .0000000000000000 .0000000000000000
.0000000000000000 .0000000000000000 .0000000000000000
.0000000000000000 .0000000000000000 .0000000000000000
.0000000000000000 .0000000000000000 .0000000000000000
.0000000000000000 .0000000000000000 .0000000000000000
.0000000000000000 .0000000000000000 .0000000000000000
.0000000000000000 .0000000000000000 .0000000000000000
.0000000000000000 .0000000000000000 .0000000000000000
.0000000000000000 .0000000000000000 .0000000000000000
.0000000000000000 .0000000000000000 .0000000000000000
.0000000000000000 .0000000000000000 .0000000000000000
.0000000000000000 .0000000000000000 .0000000000000000
.0000000000000000 .0000000000000000 .0000000000000000
.0000000000000000 .0000000000000000 .0000000000000000
.0000000000000000 .0000000000000000 .0000000000000000
.0000000000000000 .0000000000000000 .0000000000000000
.0000000000000000 .0000000000000000 .0000000000000000
.0000000000000000 .0000000000000000 .0000000000000000
.0000000000000000 .0000000000000000 .0000000000000000
.0000000000000000 .0000000000000000 .0000000000000000
.0000000000000000 .0000000000000000 .0000000000000000
.0000000000000000 .0000000000000000 .0000000000000000
.0000000000000000 .0000000000000000 .0000000000000000
.0000000000000000 .0000000000000000 .0000000000000000
.0000000000000000 .0000000000000000 .0000000000000000
.0000000000000000 .0000000000000000 .0000000000000000
.0000000000000000 .0000000000000000 .0000000000000000
.0000000000000000 .0000000000000000 .0000000000000000
.0000000000000000 .0000000000000000 .0000000000000000
.0000000000000000 .0000000000000000 .0000000000000000
.0000000000000000 .0000000000000000 .0000000000000000
.0000000000000000 .0000000000000000 .0000000000000000
.0000000000000000 .0000000000000000 .0000000000000000
.0000000000000000 .0000000000000000 .0000000000000000
.0000000000000000 .0000000000000000 .0000000000000000
.0000000000000000 .0000000000000000 .0000000000000000
.0000000000000000 .0000000000000000 .0000000000000000
.0000000000000000 .0000000000000000 .0000000000000000
.0000000000000000 .0000000000000000 .0000000000000000
.0000000000000000 .0000000000000000 .0000000000000000
.0000000000000000 .0000000000000000 .0000000000000000
.0000000000000000 .0000000000000000 .0000000000000000
.0000000000000000 .0000000000000000 .0000000000000000
.0000000000000000 .0000000000000000 .0000000000000000
.0000000000000000 .0000000000000000 .0000000000000000
.0000000000000000 .0000000000000000 .0000000000000000
.0000000000000000 .0000000000000000 .0000000000000000
.0000000000000000 .0000000000000000 .0000000000000000
.0000000000000000 .0000000000000000 .0000000000000000
.0000000000000000 .0000000000000000 .0000000000000000
.0000000000000000 .0000000000000000 .0000000000000000
.0000000000000000 .0000000000000000 .0000000000000000
.0000000000000000 .0000000000000000 .0000000000000000
.0000000000000000 .0000000000000000 .0000000000000000
.0000000000000000 .0000000000000000 .0000000000000000
.0000000000000000 .0000000000000000 .0000000000000000
.0000000000000000 .0000000000000000 .0000000000000000
.0000000000000000 .0000000000000000 .0000000000000000
.0000000000000000 .0000000000000000 .0000000000000000
.0000000000000000 .0000000000000000 .0000000000000000
.0000000000000000 .0000000000000000 .0000000000000000
.0000000000000000 .0000000000000000 .0000000000000000
.0000000000000000 .0000000000000000 .0000000000000000
.0000000000000000 .0000000000000000 .0000000000000000
.0000000000000000 .0000000000000000 .0000000000000000
.0000000000000000 .0000000000000000 .0000000000000000
.0000000000000000 .0000000000000000 .0000000000000000
.0000000000000000 .0000000000000000 .0000000000000000
.0000000000000000 .0000000000000000 .0000000000000000
.0000000000000000 .0000000000000000 .0000000000000000
.0000000000000000 .0000000000000000 .0000000000000000
.0000000000000000 .0000000000000000 .0000000000000000
.0000000000000000 .0000000000000000 .0000000000000000
.0000000000000000 .0000000000000000 .0000000000000000
.0000000000000000 .0000000000000000 .0000000000000000
.0000000000000000 .0000000000000000 .0000000000000000
.0000000000000000 .0000000000000000 .0000000000000000
.0000000000000000 .0000000000000000 .0000000000000000
.0000000000000000 .0000000000000000 .0000000000000000
.0000000000000000 .0000000000000000 .0000000000000000
.0000000000000000 .0000000000000000 .0000000000000000
.0000000000000000 .0000000000000000 .0000000000000000
.0000000000000000 .0000000000000000 .0000000000000000
.0000000000000000 .0000000000000000 .0000000000000000
.0000000000000000 .0000000000000000 .0000000000000000
.0000000000000000 .0000000000000000 .0000000000000000
51.7912465747471416 -.0013313656499349 .0000000000000000
52.4609641193260856 -.0171227573834666 .0000000000000000
53.1165778506740693 -.0390721412365325 .0000000000000000
53.8253683348076635 -.0568004350763899 .0000000000000000
54.5320478329675140 -.0573739196389656 .0000000000000000
55.2483180667979568 -.0507486027121342 .0000000000000000
55.9490660781594826 -.0296267521744247 .0000000000000000
56.6258948493764649 .0011536736800935 .0000000000000000
57.2691680473779883 .0248930435261049 .0000000000000000
57.9080189024224836 .0239855838056025 .0000000000000000
58.5562615716916994 .0150639784621989 .0000000000000000
59.2216103560258986 .0020155762990723 .0000000000000000
59.8979287222312564 -.0007874029751676 .0000000000000000
60.5721446881273167 .0019230025909974 .0000000000000000
61.2383137610749273 .0139226045514029 .0000000000000000
61.8832822949715435 .0397972773317941 .0000000000000000
62.4974484529427343 .0642375539107676 .0000000000000000
63.0887244774209037 .0755427350406712 .0000000000000000
63.6718627391565803 .0757655896196272 .0000000000000000
64.2509548507134411 .0751431368737012 .0000000000000000
64.8250337813081217 .0762376215007186 .0000000000000000
65.3896846144573658 .0830782793845310 .0000000000000000
65.9368956028312425 .0977593352887252 .0000000000000000
66.4583995025433012 .1187010600063056 .0000000000000000
66.9479490194092222 .1428698913226416 .0000000000000000
67.4020812467846042 .1676957126794888 .0000000000000000
67.8196924405537516 .1916362645577671 .0000000000000000
68.2009437705140016 .2142181253496855 .0000000000000000
68.5457006467947707 .2368420910192617 .0000000000000000
68.8522218989431707 .2610055899214602 .0000000000000000
69.1155734545467482 .2920217972247937 .0000000000000000
69.3312508275374597 .3263452068803981 .0000000000000000
69.4813402962972617 .3849766160081035 .0000000000000000
69.5774707634905383 .4132216897834666 .0000000000000000
69.5834472154501356 .5035010403394640 .0000000000000000
69.4603974526571193 .5794622361161400 .0000000000000000
69.2547643856671016 .6686347408991037 .0000000000000000
68.9162752385848592 .7630010049050392 .0000000000000000
68.4500558203523752 .8949864391508604 .0000000000000000
67.8147438426517652 1.1154642834445527 .0000000000000000
66.9450991716004040 1.5842634572368237 .0000000000000000
65.6587096532420844 2.5862733602467300 .0000000000000000
63.6783894437179541 4.6125399250079591 .0000000000000000
60.4841287385528190 8.2933252437446967 .0000000000000000
55.5530587246085972 12.1097344094327983 .0000000000000000
46.6356766350382301 16.7374000563808814 .0000000000000000
31.7972482494324886 9.1655800059441557 .0000000000000000
12.1355771139222242 7.2259645636717060 .0000000000000000
-6.1758235601513896 -1.9037294045614885 .0000000000000000
-6.2557741312252482 -4.9128994749340666 .0000000000000000
.0000000000000000 .0000000000000000 .0000000000000000
.0000000000000000 .0000000000000000 .0000000000000000
.0000000000000000 .0000000000000000 .0000000000000000
.0000000000000000 .0000000000000000 .0000000000000000
.0000000000000000 .0000000000000000 .0000000000000000
.0000000000000000 .0000000000000000 .0000000000000000
.0000000000000000 .0000000000000000 .0000000000000000
.0000000000000000 .0000000000000000 .0000000000000000
.0000000000000000 .0000000000000000 .0000000000000000
.0000000000000000 .0000000000000000 .0000000000000000
.0000000000000000 .0000000000000000 .0000000000000000
.0000000000000000 .0000000000000000 .0000000000000000
.0000000000000000 .0000000000000000 .0000000000000000
.0000000000000000 .0000000000000000 .0000000000000000
.0000000000000000 .0000000000000000 .0000000000000000
.0000000000000000 .0000000000000000 .0000000000000000
.0000000000000000 .0000000000000000 .0000000000000000
.0000000000000000 .0000000000000000 .0000000000000000
.0000000000000000 .0000000000000000 .0000000000000000
.0000000000000000 .0000000000000000 .0000000000000000
.0000000000000000 .0000000000000000 .0000000000000000
.0000000000000000 .0000000000000000 .0000000000000000
.0000000000000000 .0000000000000000 .0000000000000000
.0000000000000000 .0000000000000000 .0000000000000000
.0000000000000000 .0000000000000000 .0000000000000000
.0000000000000000 .0000000000000000 .0000000000000000
.0000000000000000 .0000000000000000 .0000000000000000
.0000000000000000 .0000000000000000 .0000000000000000
.0000000000000000 .0000000000000000 .0000000000000000
.0000000000000000 .0000000000000000 .0000000000000000
.0000000000000000 .0000000000000000 .0000000000000000
.0000000000000000 .0000000000000000 .0000000000000000
.0000000000000000 .0000000000000000 .0000000000000000
.0000000000000000 .0000000000000000 .0000000000000000
.0000000000000000 .0000000000000000 .0000000000000000
.0000000000000000 .0000000000000000 .0000000000000000
.0000000000000000 .0000000000000000 .0000000000000000
.0000000000000000 .0000000000000000 .0000000000000000
.0000000000000000 .0000000000000000 .0000000000000000
.0000000000000000 .0000000000000000 .0000000000000000
.0000000000000000 .0000000000000000 .0000000000000000
.0000000000000000 .0000000000000000 .0000000000000000
.0000000000000000 .0000000000000000 .0000000000000000
.0000000000000000 .0000000000000000 .0000000000000000
.0000000000000000 .0000000000000000 .0000000000000000
.0000000000000000 .0000000000000000 .0000000000000000
.0000000000000000 .0000000000000000 .0000000000000000
.0000000000000000 .0000000000000000 .0000000000000000
.0000000000000000 .0000000000000000 .0000000000000000
.0000000000000000 .0000000000000000 .0000000000000000
.0000000000000000 .0000000000000000 .0000000000000000
.0000000000000000 .0000000000000000 .0000000000000000
.0000000000000000 .0000000000000000 .0000000000000000
.0000000000000000 .0000000000000000 .0000000000000000
.0000000000000000 .0000000000000000 .0000000000000000
.0000000000000000 .0000000000000000 .0000000000000000
.0000000000000000 .0000000000000000 .0000000000000000
.0000000000000000 .0000000000000000 .0000000000000000
.0000000000000000 .0000000000000000 .0000000000000000
.0000000000000000 .0000000000000000 .0000000000000000
.0000000000000000 .0000000000000000 .0000000000000000
.0000000000000000 .0000000000000000 .0000000000000000
.0000000000000000 .0000000000000000 .0000000000000000
.0000000000000000 .0000000000000000 .0000000000000000
.0000000000000000 .0000000000000000 .0000000000000000
.0000000000000000 .0000000000000000 .0000000000000000
.0000000000000000 .0000000000000000 .0000000000000000
.0000000000000000 .0000000000000000 .0000000000000000
.0000000000000000 .0000000000000000 .0000000000000000
.0000000000000000 .0000000000000000 .0000000000000000
.0000000000000000 .0000000000000000 .0000000000000000
.0000000000000000 .0000000000000000 .0000000000000000
.0000000000000000 .0000000000000000 .0000000000000000
.0000000000000000 .0000000000000000 .0000000000000000
.0000000000000000 .0000000000000000 .0000000000000000
.0000000000000000 .0000000000000000 .0000000000000000
.0000000000000000 .0000000000000000 .0000000000000000
.0000000000000000 .0000000000000000 .0000000000000000
.0000000000000000 .0000000000000000 .0000000000000000
.0000000000000000 .0000000000000000 .0000000000000000
.0000000000000000 .0000000000000000 .0000000000000000
.0000000000000000 .0000000000000000 .0000000000000000
.0000000000000000 .0000000000000000 .0000000000000000
.0000000000000000 .0000000000000000 .0000000000000000
.0000000000000000 .0000000000000000 .0000000000000000
.0000000000000000 .0000000000000000 .0000000000000000
.0000000000000000 .0000000000000000 .0000000000000000
.0000000000000000 .0000000000000000 .0000000000000000
.0000000000000000 .0000000000000000 .0000000000000000
.0000000000000000 .0000000000000000 .0000000000000000
.0000000000000000 .0000000000000000 .0000000000000000
.0000000000000000 .0000000000000000 .0000000000000000
.0000000000000000 .0000000000000000 .0000000000000000
.0000000000000000 .0000000000000000 .0000000000000000
.0000000000000000 .0000000000000000 .0000000000000000
.0000000000000000 .0000000000000000 .0000000000000000
.0000000000000000 .0000000000000000 .0000000000000000
.0000000000000000 .0000000000000000 .0000000000000000
.0000000000000000 .0000000000000000 .0000000000000000
.0000000000000000 .0000000000000000 .0000000000000000
.0000000000000000 .0000000000000000 .0000000000000000
.0000000000000000 .0000000000000000 .0000000000000000
.0000000000000000 .0000000000000000 .0000000000000000
.0000000000000000 .0000000000000000 .0000000000000000
.0000000000000000 .0000000000000000 .0000000000000000
.0000000000000000 .0000000000000000 .0000000000000000
.0000000000000000 .0000000000000000 .0000000000000000
.0000000000000000 .0000000000000000 .0000000000000000
.0000000000000000 .0000000000000000 .0000000000000000
.0000000000000000 .0000000000000000 .0000000000000000
.0000000000000000 .0000000000000000 .0000000000000000
.0000000000000000 .0000000000000000 .0000000000000000
.0000000000000000 .0000000000000000 .0000000000000000
.0000000000000000 .0000000000000000 .0000000000000000
.0000000000000000 .0000000000000000 .0000000000000000
.0000000000000000 .0000000000000000 .0000000000000000
.0000000000000000 .0000000000000000 .0000000000000000
.0000000000000000 .0000000000000000 .0000000000000000
.0000000000000000 .0000000000000000 .0000000000000000
.0000000000000000 .0000000000000000 .0000000000000000
.0000000000000000 .0000000000000000 .0000000000000000
.0000000000000000 .0000000000000000 .0000000000000000
.0000000000000000 .0000000000000000 .0000000000000000
.0000000000000000 .0000000000000000 .0000000000000000
.0000000000000000 .0000000000000000 .0000000000000000
.0000000000000000 .0000000000000000 .0000000000000000
.0000000000000000 .0000000000000000 .0000000000000000
.0000000000000000 .0000000000000000 .0000000000000000
.0000000000000000 .0000000000000000 .0000000000000000
.0000000000000000 .0000000000000000 .0000000000000000
51.7869027833774140 -.0051741179916378 .0000000000000000
52.4512397825403767 -.0312855464493628 .0000000000000000
53.1020466445013852 -.0670275095472545 .0000000000000000
53.8064969029456108 -.0960169327799092 .0000000000000000
54.5089290105280142 -.0967034904323409 .0000000000000000