# vtk DataFile Version 3.1
cfd-iitm output (Simulation clock:-1.000000)
ASCII
DATASET STRUCTURED_GRID
DIMENSIONS 181 65 1
POINTS 11765 FLOAT
.0000000000000000 .0000000000000000 .000000
.0055555555555600 .0000000000000000 .000000
.0111111111111000 .0000000000000000 .000000
.0166666666667000 .0000000000000000 .000000
.0222222222222000 .0000000000000000 .000000
.0277777777778000 .0000000000000000 .000000
.0333333333333000 .0000000000000000 .000000
.0388888888889000 .0000000000000000 .000000
.0444444444444000 .0000000000000000 .000000
.0500000000000000 .0000000000000000 .000000
.0555555555556000 .0000000000000000 .000000
.0611111111111000 .0000000000000000 .000000
.0666666666667000 .0000000000000000 .000000
.0722222222222000 .0000000000000000 .000000
.0777777777778000 .0000000000000000 .000000
.0833333333333000 .0000000000000000 .000000
.0888888888889000 .0000000000000000 .000000
.0944444444444000 .0000000000000000 .000000
.1000000000000000 .0000000000000000 .000000
.1055555555560000 .0000000000000000 .000000
.1111111111110000 .0000000000000000 .000000
.1166666666670000 .0000000000000000 .000000
.1222222222220000 .0000000000000000 .000000
.1277777777780000 .0000000000000000 .000000
.1333333333330000 .0000000000000000 .000000
.1388888888890000 .0000000000000000 .000000
.1444444444440000 .0000000000000000 .000000
.1500000000000000 .0000000000000000 .000000
.1555555555560000 .0000000000000000 .000000
.1611111111110000 .0000000000000000 .000000
.1666666666670000 .0000000000000000 .000000
.1722222222220000 .0000000000000000 .000000
.1777777777780000 .0000000000000000 .000000
.1833333333330000 .0000000000000000 .000000
.1888888888890000 .0000000000000000 .000000
.1944444444440000 .0000000000000000 .000000
.2000000000000000 .0000000000000000 .000000
.2055555555560000 .0000000000000000 .000000
.2111111111110000 .0000000000000000 .000000
.2166666666670000 .0000000000000000 .000000
.2222222222220000 .0000000000000000 .000000
.2277777777780000 .0000000000000000 .000000
.2333333333330000 .0000000000000000 .000000
.2388888888890000 .0000000000000000 .000000
.2444444444440000 .0000000000000000 .000000
.2500000000000000 .0000000000000000 .000000
.2555555555560000 .0000000000000000 .000000
.2611111111110000 .0000000000000000 .000000
.2666666666670000 .0000000000000000 .000000
.2722222222220000 .0000000000000000 .000000
.2777777777780000 .0000000000000000 .000000
.2833333333330000 .0000000000000000 .000000
.2888888888890000 .0000000000000000 .000000
.2944444444440000 .0000000000000000 .000000
.3000000000000000 .0000000000000000 .000000
.3055555555560000 .0000000000000000 .000000
.3111111111110000 .0000000000000000 .000000
.3166666666670000 .0000000000000000 .000000
.3222222222220000 .0000000000000000 .000000
.3277777777780000 .0000000000000000 .000000
.3333333333330000 .0000000000000000 .000000
.3388888888890000 .0000000000000000 .000000
.3444444444440000 .0000000000000000 .000000
.3500000000000000 .0000000000000000 .000000
.3555555555560000 .0000000000000000 .000000
.3611111111110000 .0000000000000000 .000000
.3666666666670000 .0000000000000000 .000000
.3722222222220000 .0000000000000000 .000000
.3777777777780000 .0000000000000000 .000000
.3833333333330000 .0000000000000000 .000000
.3888888888890000 .0000000000000000 .000000
.3944444444440000 .0000000000000000 .000000
.4000000000000000 .0000000000000000 .000000
.4055555555560000 .0000000000000000 .000000
.4111111111110000 .0000000000000000 .000000
.4166666666670000 .0000000000000000 .000000
.4222222222220000 .0000000000000000 .000000
.4277777777780000 .0000000000000000 .000000
.4333333333330000 .0000000000000000 .000000
.4388888888890000 .0000000000000000 .000000
.4444444444440000 .0000000000000000 .000000
.4500000000000000 .0000000000000000 .000000
.4555555555560000 .0000000000000000 .000000
.4611111111110000 .0000000000000000 .000000
.4666666666670000 .0000000000000000 .000000
.4722222222220000 .0000000000000000 .000000
.4777777777780000 .0000000000000000 .000000
.4833333333330000 .0000000000000000 .000000
.4888888888890000 .0000000000000000 .000000
.4944444444440000 .0000000000000000 .000000
.5000000000000000 .0000000000000000 .000000
.5055555555560000 .0000000000000000 .000000
.5111111111110000 .0000000000000000 .000000
.5166666666670000 .0000000000000000 .000000
.5222222222220000 .0000000000000000 .000000
.5277777777779999 .0000000000000000 .000000
.5333333333330000 .0000000000000000 .000000
.5388888888890000 .0000000000000000 .000000
.5444444444440000 .0000000000000000 .000000
.5500000000000000 .0000000000000000 .000000
.5555555555560000 .0000000000000000 .000000
.5611111111110000 .0000000000000000 .000000
.5666666666670001 .0000000000000000 .000000
.5722222222220000 .0000000000000000 .000000
.5777777777780000 .0000000000000000 .000000
.5833333333330000 .0000000000000000 .000000
.5888888888890000 .0000000000000000 .000000
.5944444444440000 .0000000000000000 .000000
.6000000000000000 .0000000000000000 .000000
.6055555555560000 .0000000000000000 .000000
.6111111111110000 .0000000000000000 .000000
.6166666666670000 .0000000000000000 .000000
.6222222222220000 .0000000000000000 .000000
.6277777777780000 .0000000000000000 .000000
.6333333333330000 .0000000000000000 .000000
.6388888888890000 .0000000000000000 .000000
.6444444444440000 .0000000000000000 .000000
.6500000000000000 .0000000000000000 .000000
.6555555555560000 .0000000000000000 .000000
.6611111111110000 .0000000000000000 .000000
.6666666666670000 .0000000000000000 .000000
.6722222222220000 .0000000000000000 .000000
.6777777777780000 .0000000000000000 .000000
.6833333333329999 .0000000000000000 .000000
.6888888888890000 .0000000000000000 .000000
.6944444444440000 .0000000000000000 .000000
.7000000000000000 .0000000000000000 .000000
.7055555555560000 .0000000000000000 .000000
.7111111111110000 .0000000000000000 .000000
.7166666666670000 .0000000000000000 .000000
.7222222222220001 .0000000000000000 .000000
.7277777777780000 .0000000000000000 .000000
.7333333333330000 .0000000000000000 .000000
.7388888888890000 .0000000000000000 .000000
.7444444444440000 .0000000000000000 .000000
.7500000000000000 .0000000000000000 .000000
.7555555555560000 .0000000000000000 .000000
.7611111111110000 .0000000000000000 .000000
.7666666666670000 .0000000000000000 .000000
.7722222222220000 .0000000000000000 .000000
.7777777777779999 .0000000000000000 .000000
.7833333333330000 .0000000000000000 .000000
.7888888888890000 .0000000000000000 .000000
.7944444444440000 .0000000000000000 .000000
.8000000000000000 .0000000000000000 .000000
.8055555555560000 .0000000000000000 .000000
.8111111111110000 .0000000000000000 .000000
.8166666666670001 .0000000000000000 .000000
.8222222222220000 .0000000000000000 .000000
.8277777777780000 .0000000000000000 .000000
.8333333333330000 .0000000000000000 .000000
.8388888888890000 .0000000000000000 .000000
.8444444444440000 .0000000000000000 .000000
.8500000000000000 .0000000000000000 .000000
.8555555555560000 .0000000000000000 .000000
.8611111111110000 .0000000000000000 .000000
.8666666666670000 .0000000000000000 .000000
.8722222222220000 .0000000000000000 .000000
.8777777777780000 .0000000000000000 .000000
.8833333333330000 .0000000000000000 .000000
.8888888888890000 .0000000000000000 .000000
.8944444444440000 .0000000000000000 .000000
.9000000000000000 .0000000000000000 .000000
.9055555555560000 .0000000000000000 .000000
.9111111111110000 .0000000000000000 .000000
.9166666666670000 .0000000000000000 .000000
.9222222222220000 .0000000000000000 .000000
.9277777777780000 .0000000000000000 .000000
.9333333333329999 .0000000000000000 .000000
.9388888888890000 .0000000000000000 .000000
.9444444444440000 .0000000000000000 .000000
.9500000000000000 .0000000000000000 .000000
.9555555555560000 .0000000000000000 .000000
.9611111111110000 .0000000000000000 .000000
.9666666666670000 .0000000000000000 .000000
.9722222222220001 .0000000000000000 .000000
.9777777777780000 .0000000000000000 .000000
.9833333333330000 .0000000000000000 .000000
.9888888888890000 .0000000000000000 .000000
.9944444444440000 .0000000000000000 .000000
1.0000000000000000 .0000000000000000 .000000
.0000000000000000 .0031250000000000 .000000
.0055555555555600 .0031250000000000 .000000
.0111111111111000 .0031250000000000 .000000
.0166666666667000 .0031250000000000 .000000
.0222222222222000 .0031250000000000 .000000
.0277777777778000 .0031250000000000 .000000
.0333333333333000 .0031250000000000 .000000
.0388888888889000 .0031250000000000 .000000
.0444444444444000 .0031250000000000 .000000
.0500000000000000 .0031250000000000 .000000
.0555555555556000 .0031250000000000 .000000
.0611111111111000 .0031250000000000 .000000
.0666666666667000 .0031250000000000 .000000
.0722222222222000 .0031250000000000 .000000
.0777777777778000 .0031250000000000 .000000
.0833333333333000 .0031250000000000 .000000
.0888888888889000 .0031250000000000 .000000
.0944444444444000 .0031250000000000 .000000
.1000000000000000 .0031250000000000 .000000
.1055555555560000 .0031250000000000 .000000
.1111111111110000 .0031250000000000 .000000
.1166666666670000 .0031250000000000 .000000
.1222222222220000 .0031250000000000 .000000
.1277777777780000 .0031250000000000 .000000
.1333333333330000 .0031250000000000 .000000
.1388888888890000 .0031250000000000 .000000
.1444444444440000 .0031250000000000 .000000
.1500000000000000 .0031250000000000 .000000
.1555555555560000 .0031250000000000 .000000
.1611111111110000 .0031250000000000 .000000
.1666666666670000 .0031250000000000 .000000
.1722222222220000 .0031250000000000 .000000
.1777777777780000 .0031250000000000 .000000
.1833333333330000 .0031250000000000 .000000
.1888888888890000 .0031250000000000 .000000
.1944444444440000 .0031250000000000 .000000
.2000000000000000 .0031250000000000 .000000
.2055555555560000 .0031250000000000 .000000
.2111111111110000 .0031250000000000 .000000
.2166666666670000 .0031250000000000 .000000
.2222222222220000 .0031250000000000 .000000
.2277777777780000 .0031250000000000 .000000
.2333333333330000 .0031250000000000 .000000
[...]
CELL_DATA 11520
VECTORS Velocity FLOAT
51.1388789817575073 -.0061886586665854 .0000000000000000
50.7133070885074062 -.0071927152771276 .0000000000000000
50.3078483294671415 -.0034971302306930 .0000000000000000
49.7834405783683209 .0041864604971741 .0000000000000000
49.2688671107643046 .0133613062260720 .0000000000000000
48.7795799929288094 .0236464552083205 .0000000000000000
48.3609070408253672 .0315060836241271 .0000000000000000
48.0397092631263476 .0355330321928756 .0000000000000000
47.8263503917340529 .0350895275835704 .0000000000000000
47.7193453427404393 .0365827763710890 .0000000000000000
47.7178136307058907 .0294827167839726 .0000000000000000
47.8387134195436872 .0294200567730472 .0000000000000000
48.0515672113181935 .0249284393531683 .0000000000000000
48.2988160109457709 .0218222806949261 .0000000000000000
48.5580570729954175 .0209350819309028 .0000000000000000
48.7890612415544496 .0216084104048052 .0000000000000000
48.9495584750324113 .0233812760918852 .0000000000000000
49.0221609775833329 .0240731547165484 .0000000000000000
48.7643170632602647 .0319579037485826 .0000000000000000
47.2059662380630414 .0449937928117623 .0000000000000000
44.4054843568725701 .0396643376245906 .0000000000000000
40.1463240905336889 .0284514637137520 .0000000000000000
34.2725995020161704 .0092260490782308 .0000000000000000
27.2421128135387356 -.0239520968528477 .0000000000000000
19.9160585366212111 -.0521322010109362 .0000000000000000
13.1829629484403519 -.0695893499030352 .0000000000000000
7.6170943743408959 -.0778113112544769 .0000000000000000
3.3514137187748143 -.0759175140182406 .0000000000000000
.2836531008013059 -.0681650292244922 .0000000000000000
-1.8700239312889988 -.0560540943164320 .0000000000000000
-3.2823638532419079 -.0376014251086086 .0000000000000000
-4.2664821765906300 -.0232433307465971 .0000000000000000
-4.7820533941818413 -.0002488497942317 .0000000000000000
-5.2442759289580030 .0068114733432390 .0000000000000000
-5.3238815574945111 .0201902954562481 .0000000000000000
-5.5395940158588131 .0422137114034088 .0000000000000000
-5.7130218759811919 .0525794503613537 .0000000000000000
-5.9358982607359216 .0822202139177412 .0000000000000000
-6.2776465094886289 .1070218722197216 .0000000000000000
-6.7197017750541583 .1232623445488978 .0000000000000000
-7.1767680665487115 .0434564022607388 .0000000000000000
-7.3707293638815239 -.0691583476481582 .0000000000000000
-7.1044020060177546 -.2719608578584931 .0000000000000000
-6.3384423837761545 -.5345091605264101 .0000000000000000
-4.7838731303946105 -1.1617528495858296 .0000000000000000
-1.8582006210376738 -1.1441366514117837 .0000000000000000
2.6244402851829873 .5788908635672434 .0000000000000000
1.9889394410168557 2.0360856763640829 .0000000000000000
.0000000000000000 .0000000000000000 .0000000000000000
.0000000000000000 .0000000000000000 .0000000000000000
.0000000000000000 .0000000000000000 .0000000000000000
.0000000000000000 .0000000000000000 .0000000000000000
.0000000000000000 .0000000000000000 .0000000000000000
.0000000000000000 .0000000000000000 .0000000000000000
.0000000000000000 .0000000000000000 .0000000000000000
.0000000000000000 .0000000000000000 .0000000000000000
.0000000000000000 .0000000000000000 .0000000000000000
.0000000000000000 .0000000000000000 .0000000000000000
.0000000000000000 .0000000000000000 .0000000000000000
.0000000000000000 .0000000000000000 .0000000000000000
.0000000000000000 .0000000000000000 .0000000000000000
.0000000000000000 .0000000000000000 .0000000000000000
.0000000000000000 .0000000000000000 .0000000000000000
.0000000000000000 .0000000000000000 .0000000000000000
.0000000000000000 .0000000000000000 .0000000000000000
.0000000000000000 .0000000000000000 .0000000000000000
.0000000000000000 .0000000000000000 .0000000000000000
.0000000000000000 .0000000000000000 .0000000000000000
.0000000000000000 .0000000000000000 .0000000000000000
.0000000000000000 .0000000000000000 .0000000000000000
.0000000000000000 .0000000000000000 .0000000000000000
.0000000000000000 .0000000000000000 .0000000000000000
.0000000000000000 .0000000000000000 .0000000000000000
.0000000000000000 .0000000000000000 .0000000000000000
.0000000000000000 .0000000000000000 .0000000000000000
.0000000000000000 .0000000000000000 .0000000000000000
.0000000000000000 .0000000000000000 .0000000000000000
.0000000000000000 .0000000000000000 .0000000000000000
.0000000000000000 .0000000000000000 .0000000000000000
.0000000000000000 .0000000000000000 .0000000000000000
.0000000000000000 .0000000000000000 .0000000000000000
.0000000000000000 .0000000000000000 .0000000000000000
.0000000000000000 .0000000000000000 .0000000000000000
.0000000000000000 .0000000000000000 .0000000000000000
.0000000000000000 .0000000000000000 .0000000000000000
.0000000000000000 .0000000000000000 .0000000000000000
.0000000000000000 .0000000000000000 .0000000000000000
.0000000000000000 .0000000000000000 .0000000000000000
.0000000000000000 .0000000000000000 .0000000000000000
.0000000000000000 .0000000000000000 .0000000000000000
.0000000000000000 .0000000000000000 .0000000000000000
.0000000000000000 .0000000000000000 .0000000000000000
.0000000000000000 .0000000000000000 .0000000000000000
.0000000000000000 .0000000000000000 .0000000000000000
.0000000000000000 .0000000000000000 .0000000000000000
.0000000000000000 .0000000000000000 .0000000000000000
.0000000000000000 .0000000000000000 .0000000000000000
.0000000000000000 .0000000000000000 .0000000000000000
.0000000000000000 .0000000000000000 .0000000000000000
.0000000000000000 .0000000000000000 .0000000000000000
.0000000000000000 .0000000000000000 .0000000000000000
.0000000000000000 .0000000000000000 .0000000000000000
.0000000000000000 .0000000000000000 .0000000000000000
.0000000000000000 .0000000000000000 .0000000000000000
.0000000000000000 .0000000000000000 .0000000000000000
.0000000000000000 .0000000000000000 .0000000000000000
.0000000000000000 .0000000000000000 .0000000000000000
.0000000000000000 .0000000000000000 .0000000000000000
.0000000000000000 .0000000000000000 .0000000000000000
.0000000000000000 .0000000000000000 .0000000000000000
.0000000000000000 .0000000000000000 .0000000000000000
.0000000000000000 .0000000000000000 .0000000000000000
.0000000000000000 .0000000000000000 .0000000000000000
.0000000000000000 .0000000000000000 .0000000000000000
.0000000000000000 .0000000000000000 .0000000000000000
.0000000000000000 .0000000000000000 .0000000000000000
.0000000000000000 .0000000000000000 .0000000000000000
.0000000000000000 .0000000000000000 .0000000000000000
.0000000000000000 .0000000000000000 .0000000000000000
.0000000000000000 .0000000000000000 .0000000000000000
.0000000000000000 .0000000000000000 .0000000000000000
.0000000000000000 .0000000000000000 .0000000000000000
.0000000000000000 .0000000000000000 .0000000000000000
.0000000000000000 .0000000000000000 .0000000000000000
.0000000000000000 .0000000000000000 .0000000000000000
.0000000000000000 .0000000000000000 .0000000000000000
.0000000000000000 .0000000000000000 .0000000000000000
.0000000000000000 .0000000000000000 .0000000000000000
.0000000000000000 .0000000000000000 .0000000000000000
.0000000000000000 .0000000000000000 .0000000000000000
.0000000000000000 .0000000000000000 .0000000000000000
.0000000000000000 .0000000000000000 .0000000000000000
.0000000000000000 .0000000000000000 .0000000000000000
.0000000000000000 .0000000000000000 .0000000000000000
.0000000000000000 .0000000000000000 .0000000000000000
.0000000000000000 .0000000000000000 .0000000000000000
.0000000000000000 .0000000000000000 .0000000000000000
.0000000000000000 .0000000000000000 .0000000000000000
.0000000000000000 .0000000000000000 .0000000000000000
.0000000000000000 .0000000000000000 .0000000000000000
.0000000000000000 .0000000000000000 .0000000000000000
.0000000000000000 .0000000000000000 .0000000000000000
.0000000000000000 .0000000000000000 .0000000000000000
.0000000000000000 .0000000000000000 .0000000000000000
.0000000000000000 .0000000000000000 .0000000000000000
.0000000000000000 .0000000000000000 .0000000000000000
.0000000000000000 .0000000000000000 .0000000000000000
.0000000000000000 .0000000000000000 .0000000000000000
.0000000000000000 .0000000000000000 .0000000000000000
.0000000000000000 .0000000000000000 .0000000000000000
.0000000000000000 .0000000000000000 .0000000000000000
.0000000000000000 .0000000000000000 .0000000000000000
.0000000000000000 .0000000000000000 .0000000000000000
.0000000000000000 .0000000000000000 .0000000000000000
.0000000000000000 .0000000000000000 .0000000000000000
.0000000000000000 .0000000000000000 .0000000000000000
.0000000000000000 .0000000000000000 .0000000000000000
.0000000000000000 .0000000000000000 .0000000000000000
.0000000000000000 .0000000000000000 .0000000000000000
.0000000000000000 .0000000000000000 .0000000000000000
.0000000000000000 .0000000000000000 .0000000000000000
.0000000000000000 .0000000000000000 .0000000000000000
.0000000000000000 .0000000000000000 .0000000000000000
.0000000000000000 .0000000000000000 .0000000000000000
.0000000000000000 .0000000000000000 .0000000000000000
.0000000000000000 .0000000000000000 .0000000000000000
.0000000000000000 .0000000000000000 .0000000000000000
.0000000000000000 .0000000000000000 .0000000000000000
.0000000000000000 .0000000000000000 .0000000000000000
.0000000000000000 .0000000000000000 .0000000000000000
.0000000000000000 .0000000000000000 .0000000000000000
.0000000000000000 .0000000000000000 .0000000000000000
.0000000000000000 .0000000000000000 .0000000000000000
.0000000000000000 .0000000000000000 .0000000000000000
.0000000000000000 .0000000000000000 .0000000000000000
.0000000000000000 .0000000000000000 .0000000000000000
.0000000000000000 .0000000000000000 .0000000000000000
.0000000000000000 .0000000000000000 .0000000000000000
.0000000000000000 .0000000000000000 .0000000000000000
.0000000000000000 .0000000000000000 .0000000000000000
51.1543767631657929 -.0256049915348358 .0000000000000000
50.7446651682432659 -.0285472711807180 .0000000000000000
50.3568122906061362 -.0191598789623035 .0000000000000000
49.8508293694658775 .0024328664741939 .0000000000000000
49.3530080198048680 .0305299410322775 .0000000000000000
48.8812732270143044 .0607633733725495 .0000000000000000
48.4801206426706983 .0838385352096002 .0000000000000000
48.1761633069116257 .0955184532598415 .0000000000000000
47.9814987762371885 .0950515523404557 .0000000000000000
47.8904789410367329 .0951054374047132 .0000000000000000
47.9060853435620970 .0807546330404366 .0000000000000000
48.0482543485465641 .0739080348454884 .0000000000000000
48.2770808231905662 .0604864703049162 .0000000000000000
48.5433679510111702 .0501604912290624 .0000000000000000
48.8221363730900251 .0464514777412158 .0000000000000000
49.0736524896755810 .0468906256562583 .0000000000000000
49.2526917668685513 .0503670176058992 .0000000000000000
49.3434681919089400 .0552919360947310 .0000000000000000
49.1239426307107436 .0668673212956336 .0000000000000000
47.5948591420745544 .0863940115545973 .0000000000000000
44.8106209600761289 .0739707662539912 .0000000000000000
40.5692913954186380 .0350396447433680 .0000000000000000
34.7149810731483441 -.0349529216848306 .0000000000000000
27.7378399843007202 -.1305113498153496 .0000000000000000
20.4923367284383708 -.2092603814153803 .0000000000000000
13.8356883897228808 -.2667367442807880 .0000000000000000
8.3384906765655984 -.2900800050757895 .0000000000000000
4.1341080840010545 -.2795016664240941 .0000000000000000
1.1220986524002221 -.2509526038054946 .0000000000000000
-.9719118707139066 -.2063885471744488 .0000000000000000
-2.3264401398426324 -.1611642202495695 .0000000000000000
-3.2452003429021539 -.1013891700245857 .0000000000000000
-3.7182851566026969 -.0592338418124177 .0000000000000000
-4.1205777650585800 .0257307847375765 .0000000000000000
-4.1750181677606069 .0567157705177347 .0000000000000000
-4.3097038868632165 .1231248132602070 .0000000000000000
-4.3275670053220416 .1737681249585639 .0000000000000000
-4.3539137361018314 .2894699821358632 .0000000000000000
-4.4011105216736990 .3804810647481149 .0000000000000000
-4.7213837794384368 .5432471554021759 .0000000000000000
-5.4236903562220915 .5394317426822082 .0000000000000000
-6.4944637429133563 .4785948734822346 .0000000000000000
-7.9431526771028169 .2765740417432342 .0000000000000000
-9.4321996955778449 -.2754880800966931 .0000000000000000
-10.0951920468748160 -1.1840513500514800 .0000000000000000
-10.4601392577993799 -2.1283364467372912 .0000000000000000
-9.3151964228733490 -2.0574597187304335 .0000000000000000
-4.6412490650378935 -2.7437218840520798 .0000000000000000
3.1456888740701796 1.0800820436666010 .0000000000000000
4.0347940064243133 6.2530922282709431 .0000000000000000
.0000000000000000 .0000000000000000 .0000000000000000
.0000000000000000 .0000000000000000 .0000000000000000
.0000000000000000 .0000000000000000 .0000000000000000
.0000000000000000 .0000000000000000 .0000000000000000
.0000000000000000 .0000000000000000 .0000000000000000
.0000000000000000 .0000000000000000 .0000000000000000
.0000000000000000 .0000000000000000 .0000000000000000
.0000000000000000 .0000000000000000 .0000000000000000
.0000000000000000 .0000000000000000 .0000000000000000
.0000000000000000 .0000000000000000 .0000000000000000
.0000000000000000 .0000000000000000 .0000000000000000
.0000000000000000 .0000000000000000 .0000000000000000
.0000000000000000 .0000000000000000 .0000000000000000
.0000000000000000 .0000000000000000 .0000000000000000
.0000000000000000 .0000000000000000 .0000000000000000
.0000000000000000 .0000000000000000 .0000000000000000
.0000000000000000 .0000000000000000 .0000000000000000
.0000000000000000 .0000000000000000 .0000000000000000
.0000000000000000 .0000000000000000 .0000000000000000
.0000000000000000 .0000000000000000 .0000000000000000
.0000000000000000 .0000000000000000 .0000000000000000
.0000000000000000 .0000000000000000 .0000000000000000
.0000000000000000 .0000000000000000 .0000000000000000
.0000000000000000 .0000000000000000 .0000000000000000
.0000000000000000 .0000000000000000 .0000000000000000
.0000000000000000 .0000000000000000 .0000000000000000
.0000000000000000 .0000000000000000 .0000000000000000
.0000000000000000 .0000000000000000 .0000000000000000
.0000000000000000 .0000000000000000 .0000000000000000
.0000000000000000 .0000000000000000 .0000000000000000
.0000000000000000 .0000000000000000 .0000000000000000
.0000000000000000 .0000000000000000 .0000000000000000
.0000000000000000 .0000000000000000 .0000000000000000
.0000000000000000 .0000000000000000 .0000000000000000
.0000000000000000 .0000000000000000 .0000000000000000
.0000000000000000 .0000000000000000 .0000000000000000
.0000000000000000 .0000000000000000 .0000000000000000
.0000000000000000 .0000000000000000 .0000000000000000
.0000000000000000 .0000000000000000 .0000000000000000
.0000000000000000 .0000000000000000 .0000000000000000
.0000000000000000 .0000000000000000 .0000000000000000
.0000000000000000 .0000000000000000 .0000000000000000
.0000000000000000 .0000000000000000 .0000000000000000
.0000000000000000 .0000000000000000 .0000000000000000
.0000000000000000 .0000000000000000 .0000000000000000
.0000000000000000 .0000000000000000 .0000000000000000
.0000000000000000 .0000000000000000 .0000000000000000
.0000000000000000 .0000000000000000 .0000000000000000
.0000000000000000 .0000000000000000 .0000000000000000
.0000000000000000 .0000000000000000 .0000000000000000
.0000000000000000 .0000000000000000 .0000000000000000
.0000000000000000 .0000000000000000 .0000000000000000
.0000000000000000 .0000000000000000 .0000000000000000
.0000000000000000 .0000000000000000 .0000000000000000
.0000000000000000 .0000000000000000 .0000000000000000
.0000000000000000 .0000000000000000 .0000000000000000
.0000000000000000 .0000000000000000 .0000000000000000
.0000000000000000 .0000000000000000 .0000000000000000
.0000000000000000 .0000000000000000 .0000000000000000
.0000000000000000 .0000000000000000 .0000000000000000
.0000000000000000 .0000000000000000 .0000000000000000
.0000000000000000 .0000000000000000 .0000000000000000
.0000000000000000 .0000000000000000 .0000000000000000
.0000000000000000 .0000000000000000 .0000000000000000
.0000000000000000 .0000000000000000 .0000000000000000
.0000000000000000 .0000000000000000 .0000000000000000
.0000000000000000 .0000000000000000 .0000000000000000
.0000000000000000 .0000000000000000 .0000000000000000
.0000000000000000 .0000000000000000 .0000000000000000
.0000000000000000 .0000000000000000 .0000000000000000
.0000000000000000 .0000000000000000 .0000000000000000
.0000000000000000 .0000000000000000 .0000000000000000
.0000000000000000 .0000000000000000 .0000000000000000
.0000000000000000 .0000000000000000 .0000000000000000
.0000000000000000 .0000000000000000 .0000000000000000
.0000000000000000 .0000000000000000 .0000000000000000
.0000000000000000 .0000000000000000 .0000000000000000
.0000000000000000 .0000000000000000 .0000000000000000
.0000000000000000 .0000000000000000 .0000000000000000
.0000000000000000 .0000000000000000 .0000000000000000
.0000000000000000 .0000000000000000 .0000000000000000
.0000000000000000 .0000000000000000 .0000000000000000
.0000000000000000 .0000000000000000 .0000000000000000
.0000000000000000 .0000000000000000 .0000000000000000
.0000000000000000 .0000000000000000 .0000000000000000
.0000000000000000 .0000000000000000 .0000000000000000
.0000000000000000 .0000000000000000 .0000000000000000
.0000000000000000 .0000000000000000 .0000000000000000
.0000000000000000 .0000000000000000 .0000000000000000
.0000000000000000 .0000000000000000 .0000000000000000
.0000000000000000 .0000000000000000 .0000000000000000
.0000000000000000 .0000000000000000 .0000000000000000
.0000000000000000 .0000000000000000 .0000000000000000
.0000000000000000 .0000000000000000 .0000000000000000
.0000000000000000 .0000000000000000 .0000000000000000
.0000000000000000 .0000000000000000 .0000000000000000
.0000000000000000 .0000000000000000 .0000000000000000
.0000000000000000 .0000000000000000 .0000000000000000
.0000000000000000 .0000000000000000 .0000000000000000
.0000000000000000 .0000000000000000 .0000000000000000
.0000000000000000 .0000000000000000 .0000000000000000
.0000000000000000 .0000000000000000 .0000000000000000
.0000000000000000 .0000000000000000 .0000000000000000
.0000000000000000 .0000000000000000 .0000000000000000
.0000000000000000 .0000000000000000 .0000000000000000
.0000000000000000 .0000000000000000 .0000000000000000
.0000000000000000 .0000000000000000 .0000000000000000
.0000000000000000 .0000000000000000 .0000000000000000
.0000000000000000 .0000000000000000 .0000000000000000
.0000000000000000 .0000000000000000 .0000000000000000
.0000000000000000 .0000000000000000 .0000000000000000
.0000000000000000 .0000000000000000 .0000000000000000
.0000000000000000 .0000000000000000 .0000000000000000
.0000000000000000 .0000000000000000 .0000000000000000
.0000000000000000 .0000000000000000 .0000000000000000
.0000000000000000 .0000000000000000 .0000000000000000
.0000000000000000 .0000000000000000 .0000000000000000
.0000000000000000 .0000000000000000 .0000000000000000
.0000000000000000 .0000000000000000 .0000000000000000
.0000000000000000 .0000000000000000 .0000000000000000
.0000000000000000 .0000000000000000 .0000000000000000
.0000000000000000 .0000000000000000 .0000000000000000
.0000000000000000 .0000000000000000 .0000000000000000
.0000000000000000 .0000000000000000 .0000000000000000
.0000000000000000 .0000000000000000 .0000000000000000
.0000000000000000 .0000000000000000 .0000000000000000
.0000000000000000 .0000000000000000 .0000000000000000
.0000000000000000 .0000000000000000 .0000000000000000
.0000000000000000 .0000000000000000 .0000000000000000
.0000000000000000 .0000000000000000 .0000000000000000
51.1515224568955205 -.0492877970899039 .0000000000000000
50.7391203768310319 -.0522908458168001 .0000000000000000
50.3517386075085867 -.0369055440469951 .0000000000000000
49.8458876501835277 -.0031379724869302 .0000000000000000
49.3479877994920173 .0448010122002290 .0000000000000000