# vtk DataFile Version 3.1
cfd-iitm output (Simulation clock:-1.000000)
ASCII
DATASET STRUCTURED_GRID
DIMENSIONS 181 65 1
POINTS 11765 FLOAT
.0000000000000000 .0000000000000000 .000000
.0055555555555600 .0000000000000000 .000000
.0111111111111000 .0000000000000000 .000000
.0166666666667000 .0000000000000000 .000000
.0222222222222000 .0000000000000000 .000000
.0277777777778000 .0000000000000000 .000000
.0333333333333000 .0000000000000000 .000000
.0388888888889000 .0000000000000000 .000000
.0444444444444000 .0000000000000000 .000000
.0500000000000000 .0000000000000000 .000000
.0555555555556000 .0000000000000000 .000000
.0611111111111000 .0000000000000000 .000000
.0666666666667000 .0000000000000000 .000000
.0722222222222000 .0000000000000000 .000000
.0777777777778000 .0000000000000000 .000000
.0833333333333000 .0000000000000000 .000000
.0888888888889000 .0000000000000000 .000000
.0944444444444000 .0000000000000000 .000000
.1000000000000000 .0000000000000000 .000000
.1055555555560000 .0000000000000000 .000000
.1111111111110000 .0000000000000000 .000000
.1166666666670000 .0000000000000000 .000000
.1222222222220000 .0000000000000000 .000000
.1277777777780000 .0000000000000000 .000000
.1333333333330000 .0000000000000000 .000000
.1388888888890000 .0000000000000000 .000000
.1444444444440000 .0000000000000000 .000000
.1500000000000000 .0000000000000000 .000000
.1555555555560000 .0000000000000000 .000000
.1611111111110000 .0000000000000000 .000000
.1666666666670000 .0000000000000000 .000000
.1722222222220000 .0000000000000000 .000000
.1777777777780000 .0000000000000000 .000000
.1833333333330000 .0000000000000000 .000000
.1888888888890000 .0000000000000000 .000000
.1944444444440000 .0000000000000000 .000000
.2000000000000000 .0000000000000000 .000000
.2055555555560000 .0000000000000000 .000000
.2111111111110000 .0000000000000000 .000000
.2166666666670000 .0000000000000000 .000000
.2222222222220000 .0000000000000000 .000000
.2277777777780000 .0000000000000000 .000000
.2333333333330000 .0000000000000000 .000000
.2388888888890000 .0000000000000000 .000000
.2444444444440000 .0000000000000000 .000000
.2500000000000000 .0000000000000000 .000000
.2555555555560000 .0000000000000000 .000000
.2611111111110000 .0000000000000000 .000000
.2666666666670000 .0000000000000000 .000000
.2722222222220000 .0000000000000000 .000000
.2777777777780000 .0000000000000000 .000000
.2833333333330000 .0000000000000000 .000000
.2888888888890000 .0000000000000000 .000000
.2944444444440000 .0000000000000000 .000000
.3000000000000000 .0000000000000000 .000000
.3055555555560000 .0000000000000000 .000000
.3111111111110000 .0000000000000000 .000000
.3166666666670000 .0000000000000000 .000000
.3222222222220000 .0000000000000000 .000000
.3277777777780000 .0000000000000000 .000000
.3333333333330000 .0000000000000000 .000000
.3388888888890000 .0000000000000000 .000000
.3444444444440000 .0000000000000000 .000000
.3500000000000000 .0000000000000000 .000000
.3555555555560000 .0000000000000000 .000000
.3611111111110000 .0000000000000000 .000000
.3666666666670000 .0000000000000000 .000000
.3722222222220000 .0000000000000000 .000000
.3777777777780000 .0000000000000000 .000000
.3833333333330000 .0000000000000000 .000000
.3888888888890000 .0000000000000000 .000000
.3944444444440000 .0000000000000000 .000000
.4000000000000000 .0000000000000000 .000000
.4055555555560000 .0000000000000000 .000000
.4111111111110000 .0000000000000000 .000000
.4166666666670000 .0000000000000000 .000000
.4222222222220000 .0000000000000000 .000000
.4277777777780000 .0000000000000000 .000000
.4333333333330000 .0000000000000000 .000000
.4388888888890000 .0000000000000000 .000000
.4444444444440000 .0000000000000000 .000000
.4500000000000000 .0000000000000000 .000000
.4555555555560000 .0000000000000000 .000000
.4611111111110000 .0000000000000000 .000000
.4666666666670000 .0000000000000000 .000000
.4722222222220000 .0000000000000000 .000000
.4777777777780000 .0000000000000000 .000000
.4833333333330000 .0000000000000000 .000000
.4888888888890000 .0000000000000000 .000000
.4944444444440000 .0000000000000000 .000000
.5000000000000000 .0000000000000000 .000000
.5055555555560000 .0000000000000000 .000000
.5111111111110000 .0000000000000000 .000000
.5166666666670000 .0000000000000000 .000000
.5222222222220000 .0000000000000000 .000000
.5277777777779999 .0000000000000000 .000000
.5333333333330000 .0000000000000000 .000000
.5388888888890000 .0000000000000000 .000000
.5444444444440000 .0000000000000000 .000000
.5500000000000000 .0000000000000000 .000000
.5555555555560000 .0000000000000000 .000000
.5611111111110000 .0000000000000000 .000000
.5666666666670001 .0000000000000000 .000000
.5722222222220000 .0000000000000000 .000000
.5777777777780000 .0000000000000000 .000000
.5833333333330000 .0000000000000000 .000000
.5888888888890000 .0000000000000000 .000000
.5944444444440000 .0000000000000000 .000000
.6000000000000000 .0000000000000000 .000000
.6055555555560000 .0000000000000000 .000000
.6111111111110000 .0000000000000000 .000000
.6166666666670000 .0000000000000000 .000000
.6222222222220000 .0000000000000000 .000000
.6277777777780000 .0000000000000000 .000000
.6333333333330000 .0000000000000000 .000000
.6388888888890000 .0000000000000000 .000000
.6444444444440000 .0000000000000000 .000000
.6500000000000000 .0000000000000000 .000000
.6555555555560000 .0000000000000000 .000000
.6611111111110000 .0000000000000000 .000000
.6666666666670000 .0000000000000000 .000000
.6722222222220000 .0000000000000000 .000000
.6777777777780000 .0000000000000000 .000000
.6833333333329999 .0000000000000000 .000000
.6888888888890000 .0000000000000000 .000000
.6944444444440000 .0000000000000000 .000000
.7000000000000000 .0000000000000000 .000000
.7055555555560000 .0000000000000000 .000000
.7111111111110000 .0000000000000000 .000000
.7166666666670000 .0000000000000000 .000000
.7222222222220001 .0000000000000000 .000000
.7277777777780000 .0000000000000000 .000000
.7333333333330000 .0000000000000000 .000000
.7388888888890000 .0000000000000000 .000000
.7444444444440000 .0000000000000000 .000000
.7500000000000000 .0000000000000000 .000000
.7555555555560000 .0000000000000000 .000000
.7611111111110000 .0000000000000000 .000000
.7666666666670000 .0000000000000000 .000000
.7722222222220000 .0000000000000000 .000000
.7777777777779999 .0000000000000000 .000000
.7833333333330000 .0000000000000000 .000000
.7888888888890000 .0000000000000000 .000000
.7944444444440000 .0000000000000000 .000000
.8000000000000000 .0000000000000000 .000000
.8055555555560000 .0000000000000000 .000000
.8111111111110000 .0000000000000000 .000000
.8166666666670001 .0000000000000000 .000000
.8222222222220000 .0000000000000000 .000000
.8277777777780000 .0000000000000000 .000000
.8333333333330000 .0000000000000000 .000000
.8388888888890000 .0000000000000000 .000000
.8444444444440000 .0000000000000000 .000000
.8500000000000000 .0000000000000000 .000000
.8555555555560000 .0000000000000000 .000000
.8611111111110000 .0000000000000000 .000000
.8666666666670000 .0000000000000000 .000000
.8722222222220000 .0000000000000000 .000000
.8777777777780000 .0000000000000000 .000000
.8833333333330000 .0000000000000000 .000000
.8888888888890000 .0000000000000000 .000000
.8944444444440000 .0000000000000000 .000000
.9000000000000000 .0000000000000000 .000000
.9055555555560000 .0000000000000000 .000000
.9111111111110000 .0000000000000000 .000000
.9166666666670000 .0000000000000000 .000000
.9222222222220000 .0000000000000000 .000000
.9277777777780000 .0000000000000000 .000000
.9333333333329999 .0000000000000000 .000000
.9388888888890000 .0000000000000000 .000000
.9444444444440000 .0000000000000000 .000000
.9500000000000000 .0000000000000000 .000000
.9555555555560000 .0000000000000000 .000000
.9611111111110000 .0000000000000000 .000000
.9666666666670000 .0000000000000000 .000000
.9722222222220001 .0000000000000000 .000000
.9777777777780000 .0000000000000000 .000000
.9833333333330000 .0000000000000000 .000000
.9888888888890000 .0000000000000000 .000000
.9944444444440000 .0000000000000000 .000000
1.0000000000000000 .0000000000000000 .000000
.0000000000000000 .0031250000000000 .000000
.0055555555555600 .0031250000000000 .000000
.0111111111111000 .0031250000000000 .000000
.0166666666667000 .0031250000000000 .000000
.0222222222222000 .0031250000000000 .000000
.0277777777778000 .0031250000000000 .000000
.0333333333333000 .0031250000000000 .000000
.0388888888889000 .0031250000000000 .000000
.0444444444444000 .0031250000000000 .000000
.0500000000000000 .0031250000000000 .000000
.0555555555556000 .0031250000000000 .000000
.0611111111111000 .0031250000000000 .000000
.0666666666667000 .0031250000000000 .000000
.0722222222222000 .0031250000000000 .000000
.0777777777778000 .0031250000000000 .000000
.0833333333333000 .0031250000000000 .000000
.0888888888889000 .0031250000000000 .000000
.0944444444444000 .0031250000000000 .000000
.1000000000000000 .0031250000000000 .000000
.1055555555560000 .0031250000000000 .000000
.1111111111110000 .0031250000000000 .000000
.1166666666670000 .0031250000000000 .000000
.1222222222220000 .0031250000000000 .000000
.1277777777780000 .0031250000000000 .000000
.1333333333330000 .0031250000000000 .000000
.1388888888890000 .0031250000000000 .000000
.1444444444440000 .0031250000000000 .000000
.1500000000000000 .0031250000000000 .000000
.1555555555560000 .0031250000000000 .000000
.1611111111110000 .0031250000000000 .000000
.1666666666670000 .0031250000000000 .000000
.1722222222220000 .0031250000000000 .000000
.1777777777780000 .0031250000000000 .000000
.1833333333330000 .0031250000000000 .000000
.1888888888890000 .0031250000000000 .000000
.1944444444440000 .0031250000000000 .000000
.2000000000000000 .0031250000000000 .000000
.2055555555560000 .0031250000000000 .000000
.2111111111110000 .0031250000000000 .000000
.2166666666670000 .0031250000000000 .000000
.2222222222220000 .0031250000000000 .000000
.2277777777780000 .0031250000000000 .000000
.2333333333330000 .0031250000000000 .000000
[...]
CELL_DATA 11520
VECTORS Velocity FLOAT
50.3510249450431573 -.0097746936592675 .0000000000000000
49.4181081915767066 -.0138579183433249 .0000000000000000
48.5345157922411232 -.0115967851820296 .0000000000000000
47.6198147479862399 -.0002491608956186 .0000000000000000
46.6751714606750809 .0182665781496876 .0000000000000000
45.6759119993753373 .0312747151240302 .0000000000000000
44.6730408192273813 .0308853657696268 .0000000000000000
43.6858789665567642 .0261079541974995 .0000000000000000
42.7435663245395077 .0145674355840887 .0000000000000000
41.8633342138910507 -.0013288025651773 .0000000000000000
41.0444231670309776 -.0090799322634594 .0000000000000000
40.2444947284213228 -.0075091483876941 .0000000000000000
39.4554106299257512 -.0028217053277857 .0000000000000000
38.6468734370167368 .0085997505352705 .0000000000000000
37.8056515432103950 .0245557508461020 .0000000000000000
36.9349383077918958 .0367023850365107 .0000000000000000
36.0569741441454283 .0389213950065311 .0000000000000000
35.2020026406373958 .0359991710427608 .0000000000000000
34.3875053715068830 .0253223676063148 .0000000000000000
33.6374615326613409 .0133515626652978 .0000000000000000
32.9280321159891400 .0135233718380104 .0000000000000000
32.2267768105151546 .0191886822071483 .0000000000000000
31.5182730097227441 .0326548042684754 .0000000000000000
30.7814311797667557 .0481724762637280 .0000000000000000
30.0292578203536031 .0562610855138168 .0000000000000000
29.2879542433493967 .0568509112403544 .0000000000000000
28.5659066743915488 .0543516990191019 .0000000000000000
27.8659710460899710 .0516535520267064 .0000000000000000
27.1743383147581028 .0534311699968815 .0000000000000000
26.4733447090248717 .0583168161695727 .0000000000000000
25.7449073201418024 .0678888037081084 .0000000000000000
24.9718240841612520 .0804024043119093 .0000000000000000
24.1457829167536246 .0933301805200739 .0000000000000000
23.2670185278675064 .1056999384822216 .0000000000000000
22.3329298616390588 .1190408499977654 .0000000000000000
21.3354013702618097 .1365412813982183 .0000000000000000
20.2527064099219665 .1598672702780137 .0000000000000000
19.0650014509429262 .1898089932946446 .0000000000000000
17.7466863384176960 .2230874224010112 .0000000000000000
16.2929787923490714 .2598852446886163 .0000000000000000
14.6817580944999726 .2984229565902667 .0000000000000000
12.9012881813430642 .3562020830215378 .0000000000000000
10.8529266133004931 .4359090876030330 .0000000000000000
8.4611037815363090 .5696930656495190 .0000000000000000
5.5161660929363476 .7349817110449680 .0000000000000000
2.0160590010916106 .8976147603269886 .0000000000000000
-1.8092806647301929 -.6269960707437292 .0000000000000000
-1.1841042172590488 -.8478438969709818 .0000000000000000
.0000000000000000 .0000000000000000 .0000000000000000
.0000000000000000 .0000000000000000 .0000000000000000
.0000000000000000 .0000000000000000 .0000000000000000
.0000000000000000 .0000000000000000 .0000000000000000
.0000000000000000 .0000000000000000 .0000000000000000
.0000000000000000 .0000000000000000 .0000000000000000
.0000000000000000 .0000000000000000 .0000000000000000
.0000000000000000 .0000000000000000 .0000000000000000
.0000000000000000 .0000000000000000 .0000000000000000
.0000000000000000 .0000000000000000 .0000000000000000
.0000000000000000 .0000000000000000 .0000000000000000
.0000000000000000 .0000000000000000 .0000000000000000
.0000000000000000 .0000000000000000 .0000000000000000
.0000000000000000 .0000000000000000 .0000000000000000
.0000000000000000 .0000000000000000 .0000000000000000
.0000000000000000 .0000000000000000 .0000000000000000
.0000000000000000 .0000000000000000 .0000000000000000
.0000000000000000 .0000000000000000 .0000000000000000
.0000000000000000 .0000000000000000 .0000000000000000
.0000000000000000 .0000000000000000 .0000000000000000
.0000000000000000 .0000000000000000 .0000000000000000
.0000000000000000 .0000000000000000 .0000000000000000
.0000000000000000 .0000000000000000 .0000000000000000
.0000000000000000 .0000000000000000 .0000000000000000
.0000000000000000 .0000000000000000 .0000000000000000
.0000000000000000 .0000000000000000 .0000000000000000
.0000000000000000 .0000000000000000 .0000000000000000
.0000000000000000 .0000000000000000 .0000000000000000
.0000000000000000 .0000000000000000 .0000000000000000
.0000000000000000 .0000000000000000 .0000000000000000
.0000000000000000 .0000000000000000 .0000000000000000
.0000000000000000 .0000000000000000 .0000000000000000
.0000000000000000 .0000000000000000 .0000000000000000
.0000000000000000 .0000000000000000 .0000000000000000
.0000000000000000 .0000000000000000 .0000000000000000
.0000000000000000 .0000000000000000 .0000000000000000
.0000000000000000 .0000000000000000 .0000000000000000
.0000000000000000 .0000000000000000 .0000000000000000
.0000000000000000 .0000000000000000 .0000000000000000
.0000000000000000 .0000000000000000 .0000000000000000
.0000000000000000 .0000000000000000 .0000000000000000
.0000000000000000 .0000000000000000 .0000000000000000
.0000000000000000 .0000000000000000 .0000000000000000
.0000000000000000 .0000000000000000 .0000000000000000
.0000000000000000 .0000000000000000 .0000000000000000
.0000000000000000 .0000000000000000 .0000000000000000
.0000000000000000 .0000000000000000 .0000000000000000
.0000000000000000 .0000000000000000 .0000000000000000
.0000000000000000 .0000000000000000 .0000000000000000
.0000000000000000 .0000000000000000 .0000000000000000
.0000000000000000 .0000000000000000 .0000000000000000
.0000000000000000 .0000000000000000 .0000000000000000
.0000000000000000 .0000000000000000 .0000000000000000
.0000000000000000 .0000000000000000 .0000000000000000
.0000000000000000 .0000000000000000 .0000000000000000
.0000000000000000 .0000000000000000 .0000000000000000
.0000000000000000 .0000000000000000 .0000000000000000
.0000000000000000 .0000000000000000 .0000000000000000
.0000000000000000 .0000000000000000 .0000000000000000
.0000000000000000 .0000000000000000 .0000000000000000
.0000000000000000 .0000000000000000 .0000000000000000
.0000000000000000 .0000000000000000 .0000000000000000
.0000000000000000 .0000000000000000 .0000000000000000
.0000000000000000 .0000000000000000 .0000000000000000
.0000000000000000 .0000000000000000 .0000000000000000
.0000000000000000 .0000000000000000 .0000000000000000
.0000000000000000 .0000000000000000 .0000000000000000
.0000000000000000 .0000000000000000 .0000000000000000
.0000000000000000 .0000000000000000 .0000000000000000
.0000000000000000 .0000000000000000 .0000000000000000
.0000000000000000 .0000000000000000 .0000000000000000
.0000000000000000 .0000000000000000 .0000000000000000
.0000000000000000 .0000000000000000 .0000000000000000
.0000000000000000 .0000000000000000 .0000000000000000
.0000000000000000 .0000000000000000 .0000000000000000
.0000000000000000 .0000000000000000 .0000000000000000
.0000000000000000 .0000000000000000 .0000000000000000
.0000000000000000 .0000000000000000 .0000000000000000
.0000000000000000 .0000000000000000 .0000000000000000
.0000000000000000 .0000000000000000 .0000000000000000
.0000000000000000 .0000000000000000 .0000000000000000
.0000000000000000 .0000000000000000 .0000000000000000
.0000000000000000 .0000000000000000 .0000000000000000
.0000000000000000 .0000000000000000 .0000000000000000
.0000000000000000 .0000000000000000 .0000000000000000
.0000000000000000 .0000000000000000 .0000000000000000
.0000000000000000 .0000000000000000 .0000000000000000
.0000000000000000 .0000000000000000 .0000000000000000
.0000000000000000 .0000000000000000 .0000000000000000
.0000000000000000 .0000000000000000 .0000000000000000
.0000000000000000 .0000000000000000 .0000000000000000
.0000000000000000 .0000000000000000 .0000000000000000
.0000000000000000 .0000000000000000 .0000000000000000
.0000000000000000 .0000000000000000 .0000000000000000
.0000000000000000 .0000000000000000 .0000000000000000
.0000000000000000 .0000000000000000 .0000000000000000
.0000000000000000 .0000000000000000 .0000000000000000
.0000000000000000 .0000000000000000 .0000000000000000
.0000000000000000 .0000000000000000 .0000000000000000
.0000000000000000 .0000000000000000 .0000000000000000
.0000000000000000 .0000000000000000 .0000000000000000
.0000000000000000 .0000000000000000 .0000000000000000
.0000000000000000 .0000000000000000 .0000000000000000
.0000000000000000 .0000000000000000 .0000000000000000
.0000000000000000 .0000000000000000 .0000000000000000
.0000000000000000 .0000000000000000 .0000000000000000
.0000000000000000 .0000000000000000 .0000000000000000
.0000000000000000 .0000000000000000 .0000000000000000
.0000000000000000 .0000000000000000 .0000000000000000
.0000000000000000 .0000000000000000 .0000000000000000
.0000000000000000 .0000000000000000 .0000000000000000
.0000000000000000 .0000000000000000 .0000000000000000
.0000000000000000 .0000000000000000 .0000000000000000
.0000000000000000 .0000000000000000 .0000000000000000
.0000000000000000 .0000000000000000 .0000000000000000
.0000000000000000 .0000000000000000 .0000000000000000
.0000000000000000 .0000000000000000 .0000000000000000
.0000000000000000 .0000000000000000 .0000000000000000
.0000000000000000 .0000000000000000 .0000000000000000
.0000000000000000 .0000000000000000 .0000000000000000
.0000000000000000 .0000000000000000 .0000000000000000
.0000000000000000 .0000000000000000 .0000000000000000
.0000000000000000 .0000000000000000 .0000000000000000
.0000000000000000 .0000000000000000 .0000000000000000
.0000000000000000 .0000000000000000 .0000000000000000
.0000000000000000 .0000000000000000 .0000000000000000
.0000000000000000 .0000000000000000 .0000000000000000
.0000000000000000 .0000000000000000 .0000000000000000
.0000000000000000 .0000000000000000 .0000000000000000
.0000000000000000 .0000000000000000 .0000000000000000
.0000000000000000 .0000000000000000 .0000000000000000
.0000000000000000 .0000000000000000 .0000000000000000
50.3611261080311863 -.0022615437974062 .0000000000000000
49.4371182315602624 -.0112863076197334 .0000000000000000
48.5614991345642366 -.0081981807297852 .0000000000000000
47.6606426747873329 .0164659406657468 .0000000000000000
46.7376102280582373 .0673087563069562 .0000000000000000
45.7565305437879886 .1078869062951599 .0000000000000000
44.7696493297186962 .1067021929867063 .0000000000000000
43.7966566912226298 .0898143696621307 .0000000000000000
42.8728809864092923 .0525629891171799 .0000000000000000
42.0106934000555512 .0063687051647681 .0000000000000000
41.2043852207313250 -.0177406463251146 .0000000000000000
40.4207201219135683 -.0146104589661570 .0000000000000000
39.6454219562795060 -.0016561023727351 .0000000000000000
38.8642727600161919 .0315402948484105 .0000000000000000
38.0573948769563373 .0760448824579315 .0000000000000000
37.2061999525927689 .1145687258484953 .0000000000000000
36.3485762826393142 .1184804563310995 .0000000000000000
35.5146901000776367 .1070268550937047 .0000000000000000
34.7234231327380911 .0716947197458775 .0000000000000000
33.9983749690392898 .0329484803005925 .0000000000000000
33.3158228968356553 .0313257821911004 .0000000000000000
32.6447654338713278 .0460237364483492 .0000000000000000
31.9699680665353370 .0831240427934706 .0000000000000000
31.2694201012516366 .1261665081519002 .0000000000000000
30.5562820079160815 .1464919146788535 .0000000000000000
29.8576005193858940 .1445023030450973 .0000000000000000
29.1834579487539756 .1323601419850453 .0000000000000000
28.5377124852651853 .1192355769170054 .0000000000000000
27.9071406275322644 .1196153126917404 .0000000000000000
27.2746307487368789 .1288774379796722 .0000000000000000
26.6232799069204376 .1519108436354150 .0000000000000000
25.9373163541085461 .1829663462732072 .0000000000000000
25.2113540000347172 .2140970256088405 .0000000000000000
24.4497429843677487 .2418173011643967 .0000000000000000
23.6551013666413930 .2709925942349223 .0000000000000000
22.8238665637258400 .3109730235907969 .0000000000000000
21.9377841337015838 .3688512347110097 .0000000000000000
20.9766215063480317 .4457895048537294 .0000000000000000
19.9149952880561933 .5352033476743365 .0000000000000000
18.7492156465711659 .6287354005432367 .0000000000000000
17.4778835357330564 .7236047936169037 .0000000000000000
16.1292559383517116 .8421553343079212 .0000000000000000
14.6938959116749217 1.0085186666598296 .0000000000000000
13.1674420097550318 1.2860327791311306 .0000000000000000
11.4040720273200797 1.6967143874659283 .0000000000000000
9.2833341842468613 2.1334397782234840 .0000000000000000
6.4107097376819144 2.2698727804621233 .0000000000000000
2.6594517994982145 1.2414666319120660 .0000000000000000
-1.6113628004110208 -.4071563437962051 .0000000000000000
-2.0748006371933272 -1.2825331950830212 .0000000000000000
.0000000000000000 .0000000000000000 .0000000000000000
.0000000000000000 .0000000000000000 .0000000000000000
.0000000000000000 .0000000000000000 .0000000000000000
.0000000000000000 .0000000000000000 .0000000000000000
.0000000000000000 .0000000000000000 .0000000000000000
.0000000000000000 .0000000000000000 .0000000000000000
.0000000000000000 .0000000000000000 .0000000000000000
.0000000000000000 .0000000000000000 .0000000000000000
.0000000000000000 .0000000000000000 .0000000000000000
.0000000000000000 .0000000000000000 .0000000000000000
.0000000000000000 .0000000000000000 .0000000000000000
.0000000000000000 .0000000000000000 .0000000000000000
.0000000000000000 .0000000000000000 .0000000000000000
.0000000000000000 .0000000000000000 .0000000000000000
.0000000000000000 .0000000000000000 .0000000000000000
.0000000000000000 .0000000000000000 .0000000000000000
.0000000000000000 .0000000000000000 .0000000000000000
.0000000000000000 .0000000000000000 .0000000000000000
.0000000000000000 .0000000000000000 .0000000000000000
.0000000000000000 .0000000000000000 .0000000000000000
.0000000000000000 .0000000000000000 .0000000000000000
.0000000000000000 .0000000000000000 .0000000000000000
.0000000000000000 .0000000000000000 .0000000000000000
.0000000000000000 .0000000000000000 .0000000000000000
.0000000000000000 .0000000000000000 .0000000000000000
.0000000000000000 .0000000000000000 .0000000000000000
.0000000000000000 .0000000000000000 .0000000000000000
.0000000000000000 .0000000000000000 .0000000000000000
.0000000000000000 .0000000000000000 .0000000000000000
.0000000000000000 .0000000000000000 .0000000000000000
.0000000000000000 .0000000000000000 .0000000000000000
.0000000000000000 .0000000000000000 .0000000000000000
.0000000000000000 .0000000000000000 .0000000000000000
.0000000000000000 .0000000000000000 .0000000000000000
.0000000000000000 .0000000000000000 .0000000000000000
.0000000000000000 .0000000000000000 .0000000000000000
.0000000000000000 .0000000000000000 .0000000000000000
.0000000000000000 .0000000000000000 .0000000000000000
.0000000000000000 .0000000000000000 .0000000000000000
.0000000000000000 .0000000000000000 .0000000000000000
.0000000000000000 .0000000000000000 .0000000000000000
.0000000000000000 .0000000000000000 .0000000000000000
.0000000000000000 .0000000000000000 .0000000000000000
.0000000000000000 .0000000000000000 .0000000000000000
.0000000000000000 .0000000000000000 .0000000000000000
.0000000000000000 .0000000000000000 .0000000000000000
.0000000000000000 .0000000000000000 .0000000000000000
.0000000000000000 .0000000000000000 .0000000000000000
.0000000000000000 .0000000000000000 .0000000000000000
.0000000000000000 .0000000000000000 .0000000000000000
.0000000000000000 .0000000000000000 .0000000000000000
.0000000000000000 .0000000000000000 .0000000000000000
.0000000000000000 .0000000000000000 .0000000000000000
.0000000000000000 .0000000000000000 .0000000000000000
.0000000000000000 .0000000000000000 .0000000000000000
.0000000000000000 .0000000000000000 .0000000000000000
.0000000000000000 .0000000000000000 .0000000000000000
.0000000000000000 .0000000000000000 .0000000000000000
.0000000000000000 .0000000000000000 .0000000000000000
.0000000000000000 .0000000000000000 .0000000000000000
.0000000000000000 .0000000000000000 .0000000000000000
.0000000000000000 .0000000000000000 .0000000000000000
.0000000000000000 .0000000000000000 .0000000000000000
.0000000000000000 .0000000000000000 .0000000000000000
.0000000000000000 .0000000000000000 .0000000000000000
.0000000000000000 .0000000000000000 .0000000000000000
.0000000000000000 .0000000000000000 .0000000000000000
.0000000000000000 .0000000000000000 .0000000000000000
.0000000000000000 .0000000000000000 .0000000000000000
.0000000000000000 .0000000000000000 .0000000000000000
.0000000000000000 .0000000000000000 .0000000000000000
.0000000000000000 .0000000000000000 .0000000000000000
.0000000000000000 .0000000000000000 .0000000000000000
.0000000000000000 .0000000000000000 .0000000000000000
.0000000000000000 .0000000000000000 .0000000000000000
.0000000000000000 .0000000000000000 .0000000000000000
.0000000000000000 .0000000000000000 .0000000000000000
.0000000000000000 .0000000000000000 .0000000000000000
.0000000000000000 .0000000000000000 .0000000000000000
.0000000000000000 .0000000000000000 .0000000000000000
.0000000000000000 .0000000000000000 .0000000000000000
.0000000000000000 .0000000000000000 .0000000000000000
.0000000000000000 .0000000000000000 .0000000000000000
.0000000000000000 .0000000000000000 .0000000000000000
.0000000000000000 .0000000000000000 .0000000000000000
.0000000000000000 .0000000000000000 .0000000000000000
.0000000000000000 .0000000000000000 .0000000000000000
.0000000000000000 .0000000000000000 .0000000000000000
.0000000000000000 .0000000000000000 .0000000000000000
.0000000000000000 .0000000000000000 .0000000000000000
.0000000000000000 .0000000000000000 .0000000000000000
.0000000000000000 .0000000000000000 .0000000000000000
.0000000000000000 .0000000000000000 .0000000000000000
.0000000000000000 .0000000000000000 .0000000000000000
.0000000000000000 .0000000000000000 .0000000000000000
.0000000000000000 .0000000000000000 .0000000000000000
.0000000000000000 .0000000000000000 .0000000000000000
.0000000000000000 .0000000000000000 .0000000000000000
.0000000000000000 .0000000000000000 .0000000000000000
.0000000000000000 .0000000000000000 .0000000000000000
.0000000000000000 .0000000000000000 .0000000000000000
.0000000000000000 .0000000000000000 .0000000000000000
.0000000000000000 .0000000000000000 .0000000000000000
.0000000000000000 .0000000000000000 .0000000000000000
.0000000000000000 .0000000000000000 .0000000000000000
.0000000000000000 .0000000000000000 .0000000000000000
.0000000000000000 .0000000000000000 .0000000000000000
.0000000000000000 .0000000000000000 .0000000000000000
.0000000000000000 .0000000000000000 .0000000000000000
.0000000000000000 .0000000000000000 .0000000000000000
.0000000000000000 .0000000000000000 .0000000000000000
.0000000000000000 .0000000000000000 .0000000000000000
.0000000000000000 .0000000000000000 .0000000000000000
.0000000000000000 .0000000000000000 .0000000000000000
.0000000000000000 .0000000000000000 .0000000000000000
.0000000000000000 .0000000000000000 .0000000000000000
.0000000000000000 .0000000000000000 .0000000000000000
.0000000000000000 .0000000000000000 .0000000000000000
.0000000000000000 .0000000000000000 .0000000000000000
.0000000000000000 .0000000000000000 .0000000000000000
.0000000000000000 .0000000000000000 .0000000000000000
.0000000000000000 .0000000000000000 .0000000000000000
.0000000000000000 .0000000000000000 .0000000000000000
.0000000000000000 .0000000000000000 .0000000000000000
.0000000000000000 .0000000000000000 .0000000000000000
.0000000000000000 .0000000000000000 .0000000000000000
.0000000000000000 .0000000000000000 .0000000000000000
.0000000000000000 .0000000000000000 .0000000000000000
.0000000000000000 .0000000000000000 .0000000000000000
.0000000000000000 .0000000000000000 .0000000000000000
50.3625526477238807 -.0329060835334419 .0000000000000000
49.4426815598130531 -.0480699675487008 .0000000000000000
48.5728982706509598 -.0430379441055292 .0000000000000000
47.6724565467935903 -.0024655563681370 .0000000000000000
46.7518773268050509 .0873857254089248 .0000000000000000